s 1.100000000 _0_ AGT  --- 0 cbr 500 [0 0 0 0] [energy 30.000000 ei 0.000 es 0.000 et 0.000 er 0.000] ------- [0:1 1:0 32 0] [0] 0 0
r 1.100000000 _0_ RTR  --- 0 cbr 500 [0 0 0 0] [energy 30.000000 ei 0.000 es 0.000 et 0.000 er 0.000] ------- [0:1 1:0 32 0] [0] 0 0
v 1.1000000000000001 eval {set sim_annotation {HELLO PACKETS TRANSMISSION in all node}}
s 1.100000000 _0_ RTR  --- 0 AODV 48 [0 0 0 0] [energy 30.000000 ei 0.000 es 0.000 et 0.000 er 0.000] ------- [0:255 -1:255 30 0] [0x2 1 1 [1 0] [0 4]] (REQUEST)
s 1.100535000 _0_ MAC  --- 0 AODV 106 [0 ffffffff 0 800] [energy 30.000000 ei 0.000 es 0.000 et 0.000 er 0.000] ------- [0:255 -1:255 30 0] [0x2 1 1 [1 0] [0 4]] (REQUEST)
N -t 1.100535 -n 9 -e 29.999665
N -t 1.100536 -n 6 -e 29.999665
N -t 1.100536 -n 12 -e 29.999665
N -t 1.100536 -n 10 -e 29.999665
N -t 1.100536 -n 4 -e 29.999665
N -t 1.100536 -n 8 -e 29.999665
N -t 1.100536 -n 3 -e 29.999665
N -t 1.100536 -n 11 -e 29.999665
N -t 1.100536 -n 7 -e 29.999665
N -t 1.100536 -n 1 -e 29.999665
N -t 1.100536 -n 5 -e 29.999665
N -t 1.100536 -n 2 -e 29.999665
r 1.101383346 _9_ MAC  --- 0 AODV 48 [0 ffffffff 0 800] [energy 29.999665 ei 0.000 es 0.000 et 0.000 er 0.000] ------- [0:255 -1:255 30 0] [0x2 1 1 [1 0] [0 4]] (REQUEST)
r 1.101383507 _6_ MAC  --- 0 AODV 48 [0 ffffffff 0 800] [energy 29.999665 ei 0.000 es 0.000 et 0.000 er 0.000] ------- [0:255 -1:255 30 0] [0x2 1 1 [1 0] [0 4]] (REQUEST)
r 1.101383647 _12_ MAC  --- 0 AODV 48 [0 ffffffff 0 800] [energy 29.999665 ei 0.000 es 0.000 et 0.000 er 0.000] ------- [0:255 -1:255 30 0] [0x2 1 1 [1 0] [0 4]] (REQUEST)
r 1.101383816 _10_ MAC  --- 0 AODV 48 [0 ffffffff 0 800] [energy 29.999665 ei 0.000 es 0.000 et 0.000 er 0.000] ------- [0:255 -1:255 30 0] [0x2 1 1 [1 0] [0 4]] (REQUEST)
r 1.101383881 _4_ MAC  --- 0 AODV 48 [0 ffffffff 0 800] [energy 29.999665 ei 0.000 es 0.000 et 0.000 er 0.000] ------- [0:255 -1:255 30 0] [0x2 1 1 [1 0] [0 4]] (REQUEST)
r 1.101383919 _8_ MAC  --- 0 AODV 48 [0 ffffffff 0 800] [energy 29.999665 ei 0.000 es 0.000 et 0.000 er 0.000] ------- [0:255 -1:255 30 0] [0x2 1 1 [1 0] [0 4]] (REQUEST)
r 1.101383966 _3_ MAC  --- 0 AODV 48 [0 ffffffff 0 800] [energy 29.999665 ei 0.000 es 0.000 et 0.000 er 0.000] ------- [0:255 -1:255 30 0] [0x2 1 1 [1 0] [0 4]] (REQUEST)
r 1.101384364 _11_ MAC  --- 0 AODV 48 [0 ffffffff 0 800] [energy 29.999665 ei 0.000 es 0.000 et 0.000 er 0.000] ------- [0:255 -1:255 30 0] [0x2 1 1 [1 0] [0 4]] (REQUEST)
r 1.101384388 _7_ MAC  --- 0 AODV 48 [0 ffffffff 0 800] [energy 29.999665 ei 0.000 es 0.000 et 0.000 er 0.000] ------- [0:255 -1:255 30 0] [0x2 1 1 [1 0] [0 4]] (REQUEST)
r 1.101384402 _1_ MAC  --- 0 AODV 48 [0 ffffffff 0 800] [energy 29.999665 ei 0.000 es 0.000 et 0.000 er 0.000] ------- [0:255 -1:255 30 0] [0x2 1 1 [1 0] [0 4]] (REQUEST)
r 1.101384404 _5_ MAC  --- 0 AODV 48 [0 ffffffff 0 800] [energy 29.999665 ei 0.000 es 0.000 et 0.000 er 0.000] ------- [0:255 -1:255 30 0] [0x2 1 1 [1 0] [0 4]] (REQUEST)
r 1.101384480 _2_ MAC  --- 0 AODV 48 [0 ffffffff 0 800] [energy 29.999665 ei 0.000 es 0.000 et 0.000 er 0.000] ------- [0:255 -1:255 30 0] [0x2 1 1 [1 0] [0 4]] (REQUEST)
r 1.101408346 _9_ RTR  --- 0 AODV 48 [0 ffffffff 0 800] [energy 29.999665 ei 0.000 es 0.000 et 0.000 er 0.000] ------- [0:255 -1:255 30 0] [0x2 1 1 [1 0] [0 4]] (REQUEST)
r 1.101408507 _6_ RTR  --- 0 AODV 48 [0 ffffffff 0 800] [energy 29.999665 ei 0.000 es 0.000 et 0.000 er 0.000] ------- [0:255 -1:255 30 0] [0x2 1 1 [1 0] [0 4]] (REQUEST)
r 1.101408647 _12_ RTR  --- 0 AODV 48 [0 ffffffff 0 800] [energy 29.999665 ei 0.000 es 0.000 et 0.000 er 0.000] ------- [0:255 -1:255 30 0] [0x2 1 1 [1 0] [0 4]] (REQUEST)
r 1.101408816 _10_ RTR  --- 0 AODV 48 [0 ffffffff 0 800] [energy 29.999665 ei 0.000 es 0.000 et 0.000 er 0.000] ------- [0:255 -1:255 30 0] [0x2 1 1 [1 0] [0 4]] (REQUEST)
r 1.101408881 _4_ RTR  --- 0 AODV 48 [0 ffffffff 0 800] [energy 29.999665 ei 0.000 es 0.000 et 0.000 er 0.000] ------- [0:255 -1:255 30 0] [0x2 1 1 [1 0] [0 4]] (REQUEST)
r 1.101408919 _8_ RTR  --- 0 AODV 48 [0 ffffffff 0 800] [energy 29.999665 ei 0.000 es 0.000 et 0.000 er 0.000] ------- [0:255 -1:255 30 0] [0x2 1 1 [1 0] [0 4]] (REQUEST)
r 1.101408966 _3_ RTR  --- 0 AODV 48 [0 ffffffff 0 800] [energy 29.999665 ei 0.000 es 0.000 et 0.000 er 0.000] ------- [0:255 -1:255 30 0] [0x2 1 1 [1 0] [0 4]] (REQUEST)
r 1.101409364 _11_ RTR  --- 0 AODV 48 [0 ffffffff 0 800] [energy 29.999665 ei 0.000 es 0.000 et 0.000 er 0.000] ------- [0:255 -1:255 30 0] [0x2 1 1 [1 0] [0 4]] (REQUEST)
r 1.101409388 _7_ RTR  --- 0 AODV 48 [0 ffffffff 0 800] [energy 29.999665 ei 0.000 es 0.000 et 0.000 er 0.000] ------- [0:255 -1:255 30 0] [0x2 1 1 [1 0] [0 4]] (REQUEST)
r 1.101409402 _1_ RTR  --- 0 AODV 48 [0 ffffffff 0 800] [energy 29.999665 ei 0.000 es 0.000 et 0.000 er 0.000] ------- [0:255 -1:255 30 0] [0x2 1 1 [1 0] [0 4]] (REQUEST)
s 1.101409402 _1_ RTR  --- 0 AODV 44 [0 0 0 0] [energy 29.999665 ei 0.000 es 0.000 et 0.000 er 0.000] ------- [1:255 0:255 30 0] [0x4 1 [1 4] 10.000000] (REPLY)
r 1.101409404 _5_ RTR  --- 0 AODV 48 [0 ffffffff 0 800] [energy 29.999665 ei 0.000 es 0.000 et 0.000 er 0.000] ------- [0:255 -1:255 30 0] [0x2 1 1 [1 0] [0 4]] (REQUEST)
r 1.101409480 _2_ RTR  --- 0 AODV 48 [0 ffffffff 0 800] [energy 29.999665 ei 0.000 es 0.000 et 0.000 er 0.000] ------- [0:255 -1:255 30 0] [0x2 1 1 [1 0] [0 4]] (REQUEST)
s 1.101550393 _9_ RTR  --- 0 AODV 48 [0 ffffffff 0 800] [energy 29.999665 ei 0.000 es 0.000 et 0.000 er 0.000] ------- [9:255 -1:255 29 0] [0x2 2 1 [1 0] [0 4]] (REQUEST)
s 1.101785393 _9_ MAC  --- 0 AODV 106 [0 ffffffff 9 800] [energy 29.999665 ei 0.000 es 0.000 et 0.000 er 0.000] ------- [9:255 -1:255 29 0] [0x2 2 1 [1 0] [0 4]] (REQUEST)
N -t 1.101786 -n 0 -e 29.999105
N -t 1.101786 -n 12 -e 29.999330
N -t 1.101786 -n 6 -e 29.999330
N -t 1.101786 -n 10 -e 29.999330
N -t 1.101786 -n 1 -e 29.999330
N -t 1.101787 -n 4 -e 29.999330
N -t 1.101787 -n 7 -e 29.999330
N -t 1.101787 -n 3 -e 29.999330
N -t 1.101787 -n 8 -e 29.999330
N -t 1.101787 -n 11 -e 29.999330
N -t 1.101787 -n 2 -e 29.999330
N -t 1.101787 -n 5 -e 29.999330
s 1.102289733 _6_ RTR  --- 0 AODV 48 [0 ffffffff 0 800] [energy 29.999330 ei 0.000 es 0.000 et 0.000 er 0.001] ------- [6:255 -1:255 29 0] [0x2 2 1 [1 0] [0 4]] (REQUEST)
r 1.102633739 _0_ MAC  --- 0 AODV 48 [0 ffffffff 9 800] [energy 29.999105 ei 0.000 es 0.000 et 0.001 er 0.000] ------- [9:255 -1:255 29 0] [0x2 2 1 [1 0] [0 4]] (REQUEST)
r 1.102634032 _12_ MAC  --- 0 AODV 48 [0 ffffffff 9 800] [energy 29.999330 ei 0.000 es 0.000 et 0.000 er 0.001] ------- [9:255 -1:255 29 0] [0x2 2 1 [1 0] [0 4]] (REQUEST)
r 1.102634221 _6_ MAC  --- 0 AODV 48 [0 ffffffff 9 800] [energy 29.999330 ei 0.000 es 0.000 et 0.000 er 0.001] ------- [9:255 -1:255 29 0] [0x2 2 1 [1 0] [0 4]] (REQUEST)
r 1.102634484 _10_ MAC  --- 0 AODV 48 [0 ffffffff 9 800] [energy 29.999330 ei 0.000 es 0.000 et 0.000 er 0.001] ------- [9:255 -1:255 29 0] [0x2 2 1 [1 0] [0 4]] (REQUEST)
r 1.102634492 _1_ MAC  --- 0 AODV 48 [0 ffffffff 9 800] [energy 29.999330 ei 0.000 es 0.000 et 0.000 er 0.001] ------- [9:255 -1:255 29 0] [0x2 2 1 [1 0] [0 4]] (REQUEST)
r 1.102634580 _4_ MAC  --- 0 AODV 48 [0 ffffffff 9 800] [energy 29.999330 ei 0.000 es 0.000 et 0.000 er 0.001] ------- [9:255 -1:255 29 0] [0x2 2 1 [1 0] [0 4]] (REQUEST)
r 1.102634608 _7_ MAC  --- 0 AODV 48 [0 ffffffff 9 800] [energy 29.999330 ei 0.000 es 0.000 et 0.000 er 0.001] ------- [9:255 -1:255 29 0] [0x2 2 1 [1 0] [0 4]] (REQUEST)
r 1.102634626 _3_ MAC  --- 0 AODV 48 [0 ffffffff 9 800] [energy 29.999330 ei 0.000 es 0.000 et 0.000 er 0.001] ------- [9:255 -1:255 29 0] [0x2 2 1 [1 0] [0 4]] (REQUEST)
r 1.102634631 _8_ MAC  --- 0 AODV 48 [0 ffffffff 9 800] [energy 29.999330 ei 0.000 es 0.000 et 0.000 er 0.001] ------- [9:255 -1:255 29 0] [0x2 2 1 [1 0] [0 4]] (REQUEST)
r 1.102634632 _11_ MAC  --- 0 AODV 48 [0 ffffffff 9 800] [energy 29.999330 ei 0.000 es 0.000 et 0.000 er 0.001] ------- [9:255 -1:255 29 0] [0x2 2 1 [1 0] [0 4]] (REQUEST)
r 1.102634788 _2_ MAC  --- 0 AODV 48 [0 ffffffff 9 800] [energy 29.999330 ei 0.000 es 0.000 et 0.000 er 0.001] ------- [9:255 -1:255 29 0] [0x2 2 1 [1 0] [0 4]] (REQUEST)
r 1.102634835 _5_ MAC  --- 0 AODV 48 [0 ffffffff 9 800] [energy 29.999330 ei 0.000 es 0.000 et 0.000 er 0.001] ------- [9:255 -1:255 29 0] [0x2 2 1 [1 0] [0 4]] (REQUEST)
r 1.102658739 _0_ RTR  --- 0 AODV 48 [0 ffffffff 9 800] [energy 29.999105 ei 0.000 es 0.000 et 0.001 er 0.000] ------- [9:255 -1:255 29 0] [0x2 2 1 [1 0] [0 4]] (REQUEST)
r 1.102659032 _12_ RTR  --- 0 AODV 48 [0 ffffffff 9 800] [energy 29.999330 ei 0.000 es 0.000 et 0.000 er 0.001] ------- [9:255 -1:255 29 0] [0x2 2 1 [1 0] [0 4]] (REQUEST)
r 1.102659221 _6_ RTR  --- 0 AODV 48 [0 ffffffff 9 800] [energy 29.999330 ei 0.000 es 0.000 et 0.000 er 0.001] ------- [9:255 -1:255 29 0] [0x2 2 1 [1 0] [0 4]] (REQUEST)
r 1.102659484 _10_ RTR  --- 0 AODV 48 [0 ffffffff 9 800] [energy 29.999330 ei 0.000 es 0.000 et 0.000 er 0.001] ------- [9:255 -1:255 29 0] [0x2 2 1 [1 0] [0 4]] (REQUEST)
r 1.102659492 _1_ RTR  --- 0 AODV 48 [0 ffffffff 9 800] [energy 29.999330 ei 0.000 es 0.000 et 0.000 er 0.001] ------- [9:255 -1:255 29 0] [0x2 2 1 [1 0] [0 4]] (REQUEST)
r 1.102659580 _4_ RTR  --- 0 AODV 48 [0 ffffffff 9 800] [energy 29.999330 ei 0.000 es 0.000 et 0.000 er 0.001] ------- [9:255 -1:255 29 0] [0x2 2 1 [1 0] [0 4]] (REQUEST)
r 1.102659608 _7_ RTR  --- 0 AODV 48 [0 ffffffff 9 800] [energy 29.999330 ei 0.000 es 0.000 et 0.000 er 0.001] ------- [9:255 -1:255 29 0] [0x2 2 1 [1 0] [0 4]] (REQUEST)
r 1.102659626 _3_ RTR  --- 0 AODV 48 [0 ffffffff 9 800] [energy 29.999330 ei 0.000 es 0.000 et 0.000 er 0.001] ------- [9:255 -1:255 29 0] [0x2 2 1 [1 0] [0 4]] (REQUEST)
r 1.102659631 _8_ RTR  --- 0 AODV 48 [0 ffffffff 9 800] [energy 29.999330 ei 0.000 es 0.000 et 0.000 er 0.001] ------- [9:255 -1:255 29 0] [0x2 2 1 [1 0] [0 4]] (REQUEST)
r 1.102659632 _11_ RTR  --- 0 AODV 48 [0 ffffffff 9 800] [energy 29.999330 ei 0.000 es 0.000 et 0.000 er 0.001] ------- [9:255 -1:255 29 0] [0x2 2 1 [1 0] [0 4]] (REQUEST)
r 1.102659788 _2_ RTR  --- 0 AODV 48 [0 ffffffff 9 800] [energy 29.999330 ei 0.000 es 0.000 et 0.000 er 0.001] ------- [9:255 -1:255 29 0] [0x2 2 1 [1 0] [0 4]] (REQUEST)
r 1.102659835 _5_ RTR  --- 0 AODV 48 [0 ffffffff 9 800] [energy 29.999330 ei 0.000 es 0.000 et 0.000 er 0.001] ------- [9:255 -1:255 29 0] [0x2 2 1 [1 0] [0 4]] (REQUEST)
s 1.102904492 _1_ MAC  --- 0 ARP 86 [0 ffffffff 1 806] [energy 29.999330 ei 0.000 es 0.000 et 0.000 er 0.001] ------- [REQUEST 1/1 0/0]
N -t 1.102905 -n 7 -e 29.999058
N -t 1.102905 -n 11 -e 29.999058
N -t 1.102906 -n 2 -e 29.999058
N -t 1.102906 -n 12 -e 29.999058
N -t 1.102906 -n 9 -e 29.998834
N -t 1.102906 -n 0 -e 29.998834
N -t 1.102906 -n 5 -e 29.999058
N -t 1.102906 -n 6 -e 29.999058
N -t 1.102906 -n 10 -e 29.999058
N -t 1.102906 -n 3 -e 29.999058
N -t 1.102907 -n 4 -e 29.999058
N -t 1.102907 -n 8 -e 29.999058
s 1.103050934 _2_ RTR  --- 0 AODV 48 [0 ffffffff 0 800] [energy 29.999058 ei 0.000 es 0.000 et 0.000 er 0.001] ------- [2:255 -1:255 29 0] [0x2 2 1 [1 0] [0 4]] (REQUEST)
r 1.103593170 _7_ MAC  --- 0 ARP 28 [0 ffffffff 1 806] [energy 29.999058 ei 0.000 es 0.000 et 0.000 er 0.001] ------- [REQUEST 1/1 0/0]
r 1.103593361 _11_ MAC  --- 0 ARP 28 [0 ffffffff 1 806] [energy 29.999058 ei 0.000 es 0.000 et 0.000 er 0.001] ------- [REQUEST 1/1 0/0]
r 1.103593572 _2_ MAC  --- 0 ARP 28 [0 ffffffff 1 806] [energy 29.999058 ei 0.000 es 0.000 et 0.000 er 0.001] ------- [REQUEST 1/1 0/0]
r 1.103593572 _12_ MAC  --- 0 ARP 28 [0 ffffffff 1 806] [energy 29.999058 ei 0.000 es 0.000 et 0.000 er 0.001] ------- [REQUEST 1/1 0/0]
r 1.103593591 _9_ MAC  --- 0 ARP 28 [0 ffffffff 1 806] [energy 29.998834 ei 0.000 es 0.000 et 0.001 er 0.001] ------- [REQUEST 1/1 0/0]
r 1.103593894 _0_ MAC  --- 0 ARP 28 [0 ffffffff 1 806] [energy 29.998834 ei 0.000 es 0.000 et 0.001 er 0.001] ------- [REQUEST 1/1 0/0]
r 1.103593977 _5_ MAC  --- 0 ARP 28 [0 ffffffff 1 806] [energy 29.999058 ei 0.000 es 0.000 et 0.000 er 0.001] ------- [REQUEST 1/1 0/0]
r 1.103594242 _6_ MAC  --- 0 ARP 28 [0 ffffffff 1 806] [energy 29.999058 ei 0.000 es 0.000 et 0.000 er 0.001] ------- [REQUEST 1/1 0/0]
r 1.103594343 _10_ MAC  --- 0 ARP 28 [0 ffffffff 1 806] [energy 29.999058 ei 0.000 es 0.000 et 0.000 er 0.001] ------- [REQUEST 1/1 0/0]
r 1.103594435 _3_ MAC  --- 0 ARP 28 [0 ffffffff 1 806] [energy 29.999058 ei 0.000 es 0.000 et 0.000 er 0.001] ------- [REQUEST 1/1 0/0]
r 1.103594503 _4_ MAC  --- 0 ARP 28 [0 ffffffff 1 806] [energy 29.999058 ei 0.000 es 0.000 et 0.000 er 0.001] ------- [REQUEST 1/1 0/0]
r 1.103594590 _8_ MAC  --- 0 ARP 28 [0 ffffffff 1 806] [energy 29.999058 ei 0.000 es 0.000 et 0.000 er 0.001] ------- [REQUEST 1/1 0/0]
s 1.103754983 _3_ RTR  --- 0 AODV 48 [0 ffffffff 0 800] [energy 29.999058 ei 0.000 es 0.000 et 0.000 er 0.001] ------- [3:255 -1:255 29 0] [0x2 2 1 [1 0] [0 4]] (REQUEST)
s 1.103784242 _6_ MAC  --- 0 AODV 106 [0 ffffffff 6 800] [energy 29.999058 ei 0.000 es 0.000 et 0.000 er 0.001] ------- [6:255 -1:255 29 0] [0x2 2 1 [1 0] [0 4]] (REQUEST)
N -t 1.103785 -n 10 -e 29.998723
N -t 1.103785 -n 4 -e 29.998723
N -t 1.103785 -n 8 -e 29.998723
N -t 1.103785 -n 3 -e 29.998723
N -t 1.103785 -n 0 -e 29.998499
N -t 1.103785 -n 12 -e 29.998723
N -t 1.103785 -n 9 -e 29.998499
N -t 1.103785 -n 5 -e 29.998723
N -t 1.103786 -n 11 -e 29.998723
N -t 1.103786 -n 2 -e 29.998723
N -t 1.103786 -n 7 -e 29.998723
N -t 1.103786 -n 1 -e 29.998541
s 1.104000000 _0_ AGT  --- 1 cbr 500 [0 0 0 0] [energy 29.998499 ei 0.000 es 0.000 et 0.001 er 0.001] ------- [0:1 1:0 32 0] [1] 0 0
r 1.104000000 _0_ RTR  --- 1 cbr 500 [0 0 0 0] [energy 29.998499 ei 0.000 es 0.000 et 0.001 er 0.001] ------- [0:1 1:0 32 0] [1] 0 0
s 1.104500179 _7_ RTR  --- 0 AODV 48 [0 ffffffff 0 800] [energy 29.998723 ei 0.000 es 0.000 et 0.000 er 0.001] ------- [7:255 -1:255 29 0] [0x2 2 1 [1 0] [0 4]] (REQUEST)
s 1.104538499 _4_ RTR  --- 0 AODV 48 [0 ffffffff 0 800] [energy 29.998723 ei 0.000 es 0.000 et 0.000 er 0.001] ------- [4:255 -1:255 29 0] [0x2 2 1 [1 0] [0 4]] (REQUEST)
r 1.104632599 _10_ MAC  --- 0 AODV 48 [0 ffffffff 6 800] [energy 29.998723 ei 0.000 es 0.000 et 0.000 er 0.001] ------- [6:255 -1:255 29 0] [0x2 2 1 [1 0] [0 4]] (REQUEST)
r 1.104632620 _4_ MAC  --- 0 AODV 48 [0 ffffffff 6 800] [energy 29.998723 ei 0.000 es 0.000 et 0.000 er 0.001] ------- [6:255 -1:255 29 0] [0x2 2 1 [1 0] [0 4]] (REQUEST)
r 1.104632655 _8_ MAC  --- 0 AODV 48 [0 ffffffff 6 800] [energy 29.998723 ei 0.000 es 0.000 et 0.000 er 0.001] ------- [6:255 -1:255 29 0] [0x2 2 1 [1 0] [0 4]] (REQUEST)
r 1.104632747 _3_ MAC  --- 0 AODV 48 [0 ffffffff 6 800] [energy 29.998723 ei 0.000 es 0.000 et 0.000 er 0.001] ------- [6:255 -1:255 29 0] [0x2 2 1 [1 0] [0 4]] (REQUEST)
r 1.104632749 _0_ MAC  --- 0 AODV 48 [0 ffffffff 6 800] [energy 29.998499 ei 0.000 es 0.000 et 0.001 er 0.001] ------- [6:255 -1:255 29 0] [0x2 2 1 [1 0] [0 4]] (REQUEST)
r 1.104632979 _12_ MAC  --- 0 AODV 48 [0 ffffffff 6 800] [energy 29.998723 ei 0.000 es 0.000 et 0.000 er 0.001] ------- [6:255 -1:255 29 0] [0x2 2 1 [1 0] [0 4]] (REQUEST)
r 1.104633070 _9_ MAC  --- 0 AODV 48 [0 ffffffff 6 800] [energy 29.998499 ei 0.000 es 0.000 et 0.001 er 0.001] ------- [6:255 -1:255 29 0] [0x2 2 1 [1 0] [0 4]] (REQUEST)
r 1.104633495 _5_ MAC  --- 0 AODV 48 [0 ffffffff 6 800] [energy 29.998723 ei 0.000 es 0.000 et 0.000 er 0.001] ------- [6:255 -1:255 29 0] [0x2 2 1 [1 0] [0 4]] (REQUEST)
r 1.104633694 _11_ MAC  --- 0 AODV 48 [0 ffffffff 6 800] [energy 29.998723 ei 0.000 es 0.000 et 0.000 er 0.001] ------- [6:255 -1:255 29 0] [0x2 2 1 [1 0] [0 4]] (REQUEST)
r 1.104633741 _2_ MAC  --- 0 AODV 48 [0 ffffffff 6 800] [energy 29.998723 ei 0.000 es 0.000 et 0.000 er 0.001] ------- [6:255 -1:255 29 0] [0x2 2 1 [1 0] [0 4]] (REQUEST)
r 1.104633786 _7_ MAC  --- 0 AODV 48 [0 ffffffff 6 800] [energy 29.998723 ei 0.000 es 0.000 et 0.000 er 0.001] ------- [6:255 -1:255 29 0] [0x2 2 1 [1 0] [0 4]] (REQUEST)
r 1.104633992 _1_ MAC  --- 0 AODV 48 [0 ffffffff 6 800] [energy 29.998541 ei 0.000 es 0.000 et 0.000 er 0.001] ------- [6:255 -1:255 29 0] [0x2 2 1 [1 0] [0 4]] (REQUEST)
r 1.104657599 _10_ RTR  --- 0 AODV 48 [0 ffffffff 6 800] [energy 29.998723 ei 0.000 es 0.000 et 0.000 er 0.001] ------- [6:255 -1:255 29 0] [0x2 2 1 [1 0] [0 4]] (REQUEST)
r 1.104657620 _4_ RTR  --- 0 AODV 48 [0 ffffffff 6 800] [energy 29.998723 ei 0.000 es 0.000 et 0.000 er 0.001] ------- [6:255 -1:255 29 0] [0x2 2 1 [1 0] [0 4]] (REQUEST)
r 1.104657655 _8_ RTR  --- 0 AODV 48 [0 ffffffff 6 800] [energy 29.998723 ei 0.000 es 0.000 et 0.000 er 0.001] ------- [6:255 -1:255 29 0] [0x2 2 1 [1 0] [0 4]] (REQUEST)
r 1.104657747 _3_ RTR  --- 0 AODV 48 [0 ffffffff 6 800] [energy 29.998723 ei 0.000 es 0.000 et 0.000 er 0.001] ------- [6:255 -1:255 29 0] [0x2 2 1 [1 0] [0 4]] (REQUEST)
r 1.104657749 _0_ RTR  --- 0 AODV 48 [0 ffffffff 6 800] [energy 29.998499 ei 0.000 es 0.000 et 0.001 er 0.001] ------- [6:255 -1:255 29 0] [0x2 2 1 [1 0] [0 4]] (REQUEST)
r 1.104657979 _12_ RTR  --- 0 AODV 48 [0 ffffffff 6 800] [energy 29.998723 ei 0.000 es 0.000 et 0.000 er 0.001] ------- [6:255 -1:255 29 0] [0x2 2 1 [1 0] [0 4]] (REQUEST)
r 1.104658070 _9_ RTR  --- 0 AODV 48 [0 ffffffff 6 800] [energy 29.998499 ei 0.000 es 0.000 et 0.001 er 0.001] ------- [6:255 -1:255 29 0] [0x2 2 1 [1 0] [0 4]] (REQUEST)
r 1.104658495 _5_ RTR  --- 0 AODV 48 [0 ffffffff 6 800] [energy 29.998723 ei 0.000 es 0.000 et 0.000 er 0.001] ------- [6:255 -1:255 29 0] [0x2 2 1 [1 0] [0 4]] (REQUEST)
r 1.104658694 _11_ RTR  --- 0 AODV 48 [0 ffffffff 6 800] [energy 29.998723 ei 0.000 es 0.000 et 0.000 er 0.001] ------- [6:255 -1:255 29 0] [0x2 2 1 [1 0] [0 4]] (REQUEST)
r 1.104658741 _2_ RTR  --- 0 AODV 48 [0 ffffffff 6 800] [energy 29.998723 ei 0.000 es 0.000 et 0.000 er 0.001] ------- [6:255 -1:255 29 0] [0x2 2 1 [1 0] [0 4]] (REQUEST)
r 1.104658786 _7_ RTR  --- 0 AODV 48 [0 ffffffff 6 800] [energy 29.998723 ei 0.000 es 0.000 et 0.000 er 0.001] ------- [6:255 -1:255 29 0] [0x2 2 1 [1 0] [0 4]] (REQUEST)
r 1.104658992 _1_ RTR  --- 0 AODV 48 [0 ffffffff 6 800] [energy 29.998541 ei 0.000 es 0.000 et 0.000 er 0.001] ------- [6:255 -1:255 29 0] [0x2 2 1 [1 0] [0 4]] (REQUEST)
s 1.104703741 _2_ MAC  --- 0 AODV 106 [0 ffffffff 2 800] [energy 29.998723 ei 0.000 es 0.000 et 0.000 er 0.001] ------- [2:255 -1:255 29 0] [0x2 2 1 [1 0] [0 4]] (REQUEST)
N -t 1.104704 -n 11 -e 29.998388
N -t 1.104704 -n 7 -e 29.998388
N -t 1.104704 -n 5 -e 29.998388
N -t 1.104705 -n 12 -e 29.998388
N -t 1.104705 -n 1 -e 29.998206
N -t 1.104705 -n 10 -e 29.998388
N -t 1.104705 -n 3 -e 29.998388
N -t 1.104705 -n 9 -e 29.998164
N -t 1.104705 -n 0 -e 29.998164
N -t 1.104705 -n 6 -e 29.998164
N -t 1.104705 -n 4 -e 29.998388
N -t 1.104705 -n 8 -e 29.998388
r 1.105551956 _11_ MAC  --- 0 AODV 48 [0 ffffffff 2 800] [energy 29.998388 ei 0.000 es 0.000 et 0.000 er 0.002] ------- [2:255 -1:255 29 0] [0x2 2 1 [1 0] [0 4]] (REQUEST)
r 1.105552145 _7_ MAC  --- 0 AODV 48 [0 ffffffff 2 800] [energy 29.998388 ei 0.000 es 0.000 et 0.000 er 0.002] ------- [2:255 -1:255 29 0] [0x2 2 1 [1 0] [0 4]] (REQUEST)
r 1.105552246 _5_ MAC  --- 0 AODV 48 [0 ffffffff 2 800] [energy 29.998388 ei 0.000 es 0.000 et 0.000 er 0.002] ------- [2:255 -1:255 29 0] [0x2 2 1 [1 0] [0 4]] (REQUEST)
r 1.105552577 _12_ MAC  --- 0 AODV 48 [0 ffffffff 2 800] [energy 29.998388 ei 0.000 es 0.000 et 0.000 er 0.002] ------- [2:255 -1:255 29 0] [0x2 2 1 [1 0] [0 4]] (REQUEST)
r 1.105552821 _1_ MAC  --- 0 AODV 48 [0 ffffffff 2 800] [energy 29.998206 ei 0.000 es 0.000 et 0.000 er 0.001] ------- [2:255 -1:255 29 0] [0x2 2 1 [1 0] [0 4]] (REQUEST)
r 1.105553115 _10_ MAC  --- 0 AODV 48 [0 ffffffff 2 800] [energy 29.998388 ei 0.000 es 0.000 et 0.000 er 0.002] ------- [2:255 -1:255 29 0] [0x2 2 1 [1 0] [0 4]] (REQUEST)
r 1.105553125 _3_ MAC  --- 0 AODV 48 [0 ffffffff 2 800] [energy 29.998388 ei 0.000 es 0.000 et 0.000 er 0.002] ------- [2:255 -1:255 29 0] [0x2 2 1 [1 0] [0 4]] (REQUEST)
r 1.105553136 _9_ MAC  --- 0 AODV 48 [0 ffffffff 2 800] [energy 29.998164 ei 0.000 es 0.000 et 0.001 er 0.001] ------- [2:255 -1:255 29 0] [0x2 2 1 [1 0] [0 4]] (REQUEST)
r 1.105553220 _0_ MAC  --- 0 AODV 48 [0 ffffffff 2 800] [energy 29.998164 ei 0.000 es 0.000 et 0.001 er 0.001] ------- [2:255 -1:255 29 0] [0x2 2 1 [1 0] [0 4]] (REQUEST)
r 1.105553239 _6_ MAC  --- 0 AODV 48 [0 ffffffff 2 800] [energy 29.998164 ei 0.000 es 0.000 et 0.001 er 0.001] ------- [2:255 -1:255 29 0] [0x2 2 1 [1 0] [0 4]] (REQUEST)
r 1.105553296 _4_ MAC  --- 0 AODV 48 [0 ffffffff 2 800] [energy 29.998388 ei 0.000 es 0.000 et 0.000 er 0.002] ------- [2:255 -1:255 29 0] [0x2 2 1 [1 0] [0 4]] (REQUEST)
r 1.105553402 _8_ MAC  --- 0 AODV 48 [0 ffffffff 2 800] [energy 29.998388 ei 0.000 es 0.000 et 0.000 er 0.002] ------- [2:255 -1:255 29 0] [0x2 2 1 [1 0] [0 4]] (REQUEST)
r 1.105576956 _11_ RTR  --- 0 AODV 48 [0 ffffffff 2 800] [energy 29.998388 ei 0.000 es 0.000 et 0.000 er 0.002] ------- [2:255 -1:255 29 0] [0x2 2 1 [1 0] [0 4]] (REQUEST)
r 1.105577145 _7_ RTR  --- 0 AODV 48 [0 ffffffff 2 800] [energy 29.998388 ei 0.000 es 0.000 et 0.000 er 0.002] ------- [2:255 -1:255 29 0] [0x2 2 1 [1 0] [0 4]] (REQUEST)
r 1.105577246 _5_ RTR  --- 0 AODV 48 [0 ffffffff 2 800] [energy 29.998388 ei 0.000 es 0.000 et 0.000 er 0.002] ------- [2:255 -1:255 29 0] [0x2 2 1 [1 0] [0 4]] (REQUEST)
r 1.105577577 _12_ RTR  --- 0 AODV 48 [0 ffffffff 2 800] [energy 29.998388 ei 0.000 es 0.000 et 0.000 er 0.002] ------- [2:255 -1:255 29 0] [0x2 2 1 [1 0] [0 4]] (REQUEST)
r 1.105577821 _1_ RTR  --- 0 AODV 48 [0 ffffffff 2 800] [energy 29.998206 ei 0.000 es 0.000 et 0.000 er 0.001] ------- [2:255 -1:255 29 0] [0x2 2 1 [1 0] [0 4]] (REQUEST)
r 1.105578115 _10_ RTR  --- 0 AODV 48 [0 ffffffff 2 800] [energy 29.998388 ei 0.000 es 0.000 et 0.000 er 0.002] ------- [2:255 -1:255 29 0] [0x2 2 1 [1 0] [0 4]] (REQUEST)
r 1.105578125 _3_ RTR  --- 0 AODV 48 [0 ffffffff 2 800] [energy 29.998388 ei 0.000 es 0.000 et 0.000 er 0.002] ------- [2:255 -1:255 29 0] [0x2 2 1 [1 0] [0 4]] (REQUEST)
r 1.105578136 _9_ RTR  --- 0 AODV 48 [0 ffffffff 2 800] [energy 29.998164 ei 0.000 es 0.000 et 0.001 er 0.001] ------- [2:255 -1:255 29 0] [0x2 2 1 [1 0] [0 4]] (REQUEST)
r 1.105578220 _0_ RTR  --- 0 AODV 48 [0 ffffffff 2 800] [energy 29.998164 ei 0.000 es 0.000 et 0.001 er 0.001] ------- [2:255 -1:255 29 0] [0x2 2 1 [1 0] [0 4]] (REQUEST)
r 1.105578239 _6_ RTR  --- 0 AODV 48 [0 ffffffff 2 800] [energy 29.998164 ei 0.000 es 0.000 et 0.001 er 0.001] ------- [2:255 -1:255 29 0] [0x2 2 1 [1 0] [0 4]] (REQUEST)
r 1.105578296 _4_ RTR  --- 0 AODV 48 [0 ffffffff 2 800] [energy 29.998388 ei 0.000 es 0.000 et 0.000 er 0.002] ------- [2:255 -1:255 29 0] [0x2 2 1 [1 0] [0 4]] (REQUEST)
r 1.105578402 _8_ RTR  --- 0 AODV 48 [0 ffffffff 2 800] [energy 29.998388 ei 0.000 es 0.000 et 0.000 er 0.002] ------- [2:255 -1:255 29 0] [0x2 2 1 [1 0] [0 4]] (REQUEST)
s 1.105782145 _7_ MAC  --- 0 AODV 106 [0 ffffffff 7 800] [energy 29.998388 ei 0.000 es 0.000 et 0.000 er 0.002] ------- [7:255 -1:255 29 0] [0x2 2 1 [1 0] [0 4]] (REQUEST)
N -t 1.105782 -n 11 -e 29.998053
N -t 1.105783 -n 2 -e 29.997829
N -t 1.105783 -n 1 -e 29.997871
N -t 1.105783 -n 12 -e 29.998053
N -t 1.105783 -n 5 -e 29.998053
N -t 1.105783 -n 9 -e 29.997829
N -t 1.105784 -n 0 -e 29.997829
N -t 1.105784 -n 10 -e 29.998053
N -t 1.105784 -n 6 -e 29.997829
N -t 1.105784 -n 3 -e 29.998053
N -t 1.105784 -n 4 -e 29.998053
N -t 1.105784 -n 8 -e 29.998053
s 1.105820380 _12_ RTR  --- 0 AODV 48 [0 ffffffff 0 800] [energy 29.998053 ei 0.000 es 0.000 et 0.000 er 0.002] ------- [12:255 -1:255 29 0] [0x2 2 1 [1 0] [0 4]] (REQUEST)
r 1.106630350 _11_ MAC  --- 0 AODV 48 [0 ffffffff 7 800] [energy 29.998053 ei 0.000 es 0.000 et 0.000 er 0.002] ------- [7:255 -1:255 29 0] [0x2 2 1 [1 0] [0 4]] (REQUEST)
r 1.106630550 _2_ MAC  --- 0 AODV 48 [0 ffffffff 7 800] [energy 29.997829 ei 0.000 es 0.000 et 0.001 er 0.002] ------- [7:255 -1:255 29 0] [0x2 2 1 [1 0] [0 4]] (REQUEST)
r 1.106630823 _1_ MAC  --- 0 AODV 48 [0 ffffffff 7 800] [energy 29.997871 ei 0.000 es 0.000 et 0.000 er 0.002] ------- [7:255 -1:255 29 0] [0x2 2 1 [1 0] [0 4]] (REQUEST)
r 1.106630955 _12_ MAC  --- 0 AODV 48 [0 ffffffff 7 800] [energy 29.998053 ei 0.000 es 0.000 et 0.000 er 0.002] ------- [7:255 -1:255 29 0] [0x2 2 1 [1 0] [0 4]] (REQUEST)
r 1.106631003 _5_ MAC  --- 0 AODV 48 [0 ffffffff 7 800] [energy 29.998053 ei 0.000 es 0.000 et 0.000 er 0.002] ------- [7:255 -1:255 29 0] [0x2 2 1 [1 0] [0 4]] (REQUEST)
r 1.106631360 _9_ MAC  --- 0 AODV 48 [0 ffffffff 7 800] [energy 29.997829 ei 0.000 es 0.000 et 0.001 er 0.002] ------- [7:255 -1:255 29 0] [0x2 2 1 [1 0] [0 4]] (REQUEST)
r 1.106631534 _0_ MAC  --- 0 AODV 48 [0 ffffffff 7 800] [energy 29.997829 ei 0.000 es 0.000 et 0.001 er 0.002] ------- [7:255 -1:255 29 0] [0x2 2 1 [1 0] [0 4]] (REQUEST)
r 1.106631658 _10_ MAC  --- 0 AODV 48 [0 ffffffff 7 800] [energy 29.998053 ei 0.000 es 0.000 et 0.000 er 0.002] ------- [7:255 -1:255 29 0] [0x2 2 1 [1 0] [0 4]] (REQUEST)
r 1.106631689 _6_ MAC  --- 0 AODV 48 [0 ffffffff 7 800] [energy 29.997829 ei 0.000 es 0.000 et 0.001 er 0.002] ------- [7:255 -1:255 29 0] [0x2 2 1 [1 0] [0 4]] (REQUEST)
r 1.106631705 _3_ MAC  --- 0 AODV 48 [0 ffffffff 7 800] [energy 29.998053 ei 0.000 es 0.000 et 0.000 er 0.002] ------- [7:255 -1:255 29 0] [0x2 2 1 [1 0] [0 4]] (REQUEST)
r 1.106631837 _4_ MAC  --- 0 AODV 48 [0 ffffffff 7 800] [energy 29.998053 ei 0.000 es 0.000 et 0.000 er 0.002] ------- [7:255 -1:255 29 0] [0x2 2 1 [1 0] [0 4]] (REQUEST)
r 1.106631939 _8_ MAC  --- 0 AODV 48 [0 ffffffff 7 800] [energy 29.998053 ei 0.000 es 0.000 et 0.000 er 0.002] ------- [7:255 -1:255 29 0] [0x2 2 1 [1 0] [0 4]] (REQUEST)
r 1.106655350 _11_ RTR  --- 0 AODV 48 [0 ffffffff 7 800] [energy 29.998053 ei 0.000 es 0.000 et 0.000 er 0.002] ------- [7:255 -1:255 29 0] [0x2 2 1 [1 0] [0 4]] (REQUEST)
r 1.106655550 _2_ RTR  --- 0 AODV 48 [0 ffffffff 7 800] [energy 29.997829 ei 0.000 es 0.000 et 0.001 er 0.002] ------- [7:255 -1:255 29 0] [0x2 2 1 [1 0] [0 4]] (REQUEST)
r 1.106655823 _1_ RTR  --- 0 AODV 48 [0 ffffffff 7 800] [energy 29.997871 ei 0.000 es 0.000 et 0.000 er 0.002] ------- [7:255 -1:255 29 0] [0x2 2 1 [1 0] [0 4]] (REQUEST)
r 1.106655955 _12_ RTR  --- 0 AODV 48 [0 ffffffff 7 800] [energy 29.998053 ei 0.000 es 0.000 et 0.000 er 0.002] ------- [7:255 -1:255 29 0] [0x2 2 1 [1 0] [0 4]] (REQUEST)
r 1.106656003 _5_ RTR  --- 0 AODV 48 [0 ffffffff 7 800] [energy 29.998053 ei 0.000 es 0.000 et 0.000 er 0.002] ------- [7:255 -1:255 29 0] [0x2 2 1 [1 0] [0 4]] (REQUEST)
r 1.106656360 _9_ RTR  --- 0 AODV 48 [0 ffffffff 7 800] [energy 29.997829 ei 0.000 es 0.000 et 0.001 er 0.002] ------- [7:255 -1:255 29 0] [0x2 2 1 [1 0] [0 4]] (REQUEST)
r 1.106656534 _0_ RTR  --- 0 AODV 48 [0 ffffffff 7 800] [energy 29.997829 ei 0.000 es 0.000 et 0.001 er 0.002] ------- [7:255 -1:255 29 0] [0x2 2 1 [1 0] [0 4]] (REQUEST)
r 1.106656658 _10_ RTR  --- 0 AODV 48 [0 ffffffff 7 800] [energy 29.998053 ei 0.000 es 0.000 et 0.000 er 0.002] ------- [7:255 -1:255 29 0] [0x2 2 1 [1 0] [0 4]] (REQUEST)
r 1.106656689 _6_ RTR  --- 0 AODV 48 [0 ffffffff 7 800] [energy 29.997829 ei 0.000 es 0.000 et 0.001 er 0.002] ------- [7:255 -1:255 29 0] [0x2 2 1 [1 0] [0 4]] (REQUEST)
r 1.106656705 _3_ RTR  --- 0 AODV 48 [0 ffffffff 7 800] [energy 29.998053 ei 0.000 es 0.000 et 0.000 er 0.002] ------- [7:255 -1:255 29 0] [0x2 2 1 [1 0] [0 4]] (REQUEST)
r 1.106656837 _4_ RTR  --- 0 AODV 48 [0 ffffffff 7 800] [energy 29.998053 ei 0.000 es 0.000 et 0.000 er 0.002] ------- [7:255 -1:255 29 0] [0x2 2 1 [1 0] [0 4]] (REQUEST)
r 1.106656939 _8_ RTR  --- 0 AODV 48 [0 ffffffff 7 800] [energy 29.998053 ei 0.000 es 0.000 et 0.000 er 0.002] ------- [7:255 -1:255 29 0] [0x2 2 1 [1 0] [0 4]] (REQUEST)
s 1.106701534 _0_ MAC  --- 0 RTS 44 [36b 1 0 0] [energy 29.997829 ei 0.000 es 0.000 et 0.001 er 0.002] 
s 1.106701837 _4_ MAC  --- 0 AODV 106 [0 ffffffff 4 800] [energy 29.998053 ei 0.000 es 0.000 et 0.000 er 0.002] ------- [4:255 -1:255 29 0] [0x2 2 1 [1 0] [0 4]] (REQUEST)
N -t 1.106702 -n 9 -e 29.997690
N -t 1.106702 -n 8 -e 29.997718
N -t 1.106702 -n 10 -e 29.997718
N -t 1.106702 -n 6 -e 29.997690
N -t 1.106702 -n 3 -e 29.997718
N -t 1.106702 -n 12 -e 29.997914
N -t 1.106702 -n 6 -e 29.997494
N -t 1.106702 -n 10 -e 29.997718
N -t 1.106702 -n 4 -e 29.997494
N -t 1.106702 -n 8 -e 29.997718
N -t 1.106702 -n 3 -e 29.997718
N -t 1.106703 -n 0 -e 29.997400
N -t 1.106703 -n 12 -e 29.997718
N -t 1.106703 -n 11 -e 29.997914
N -t 1.106703 -n 7 -e 29.997690
N -t 1.106703 -n 1 -e 29.997732
N -t 1.106703 -n 5 -e 29.997914
N -t 1.106703 -n 2 -e 29.997690
N -t 1.106703 -n 9 -e 29.997493
N -t 1.106703 -n 5 -e 29.997718
N -t 1.106703 -n 2 -e 29.997494
N -t 1.106703 -n 11 -e 29.997718
N -t 1.106704 -n 7 -e 29.997494
N -t 1.106704 -n 1 -e 29.997536
D 1.106703848 _1_ MAC  COL 0 RTS 44 [36b 1 0 0] [energy 29.997536 ei 0.000 es 0.000 et 0.000 er 0.002] 
r 1.107549944 _8_ MAC  --- 0 AODV 48 [0 ffffffff 4 800] [energy 29.997718 ei 0.000 es 0.000 et 0.000 er 0.002] ------- [4:255 -1:255 29 0] [0x2 2 1 [1 0] [0 4]] (REQUEST)
r 1.107550018 _10_ MAC  --- 0 AODV 48 [0 ffffffff 4 800] [energy 29.997718 ei 0.000 es 0.000 et 0.000 er 0.002] ------- [4:255 -1:255 29 0] [0x2 2 1 [1 0] [0 4]] (REQUEST)
r 1.107550060 _3_ MAC  --- 0 AODV 48 [0 ffffffff 4 800] [energy 29.997718 ei 0.000 es 0.000 et 0.000 er 0.002] ------- [4:255 -1:255 29 0] [0x2 2 1 [1 0] [0 4]] (REQUEST)
D 1.107550215 _6_ MAC  COL 0 AODV 106 [0 ffffffff 4 800] [energy 29.997494 ei 0.000 es 0.000 et 0.001 er 0.002] ------- [4:255 -1:255 29 0] [0x2 2 1 [1 0] [0 4]] (REQUEST)
D 1.107550775 _12_ MAC  COL 0 AODV 106 [0 ffffffff 4 800] [energy 29.997718 ei 0.000 es 0.000 et 0.000 er 0.002] ------- [4:255 -1:255 29 0] [0x2 2 1 [1 0] [0 4]] (REQUEST)
D 1.107551034 _5_ MAC  COL 0 AODV 106 [0 ffffffff 4 800] [energy 29.997718 ei 0.000 es 0.000 et 0.000 er 0.002] ------- [4:255 -1:255 29 0] [0x2 2 1 [1 0] [0 4]] (REQUEST)