s 1.100000000 _0_ AGT  --- 0 cbr 500 [0 0 0 0] [energy 30.000000 ei 0.000 es 0.000 et 0.000 er 0.000] ------- [0:1 1:0 32 0] [0] 0 0
r 1.100000000 _0_ RTR  --- 0 cbr 500 [0 0 0 0] [energy 30.000000 ei 0.000 es 0.000 et 0.000 er 0.000] ------- [0:1 1:0 32 0] [0] 0 0
v 1.1000000000000001 eval {set sim_annotation {HELLO PACKETS TRANSMISSION in all node}}
s 1.100000000 _0_ RTR  --- 0 AODV 48 [0 0 0 0] [energy 30.000000 ei 0.000 es 0.000 et 0.000 er 0.000] ------- [0:255 -1:255 30 0] [0x2 1 1 [1 0] [0 4]] (REQUEST)
s 1.100535000 _0_ MAC  --- 0 AODV 106 [0 ffffffff 0 800] [energy 30.000000 ei 0.000 es 0.000 et 0.000 er 0.000] ------- [0:255 -1:255 30 0] [0x2 1 1 [1 0] [0 4]] (REQUEST)
N -t 1.100535 -n 6 -e 29.999665
N -t 1.100536 -n 5 -e 29.999665
N -t 1.100536 -n 2 -e 29.999665
N -t 1.100536 -n 10 -e 29.999665
N -t 1.100536 -n 7 -e 29.999665
N -t 1.100536 -n 9 -e 29.999665
N -t 1.100536 -n 1 -e 29.999665
N -t 1.100537 -n 13 -e 29.999665
N -t 1.100537 -n 11 -e 29.999665
N -t 1.100537 -n 8 -e 29.999665
N -t 1.100537 -n 12 -e 29.999665
N -t 1.100537 -n 4 -e 29.999665
N -t 1.100537 -n 3 -e 29.999665
r 1.101383212 _6_ MAC  --- 0 AODV 48 [0 ffffffff 0 800] [energy 29.999665 ei 0.000 es 0.000 et 0.000 er 0.000] ------- [0:255 -1:255 30 0] [0x2 1 1 [1 0] [0 4]] (REQUEST)
r 1.101383787 _5_ MAC  --- 0 AODV 48 [0 ffffffff 0 800] [energy 29.999665 ei 0.000 es 0.000 et 0.000 er 0.000] ------- [0:255 -1:255 30 0] [0x2 1 1 [1 0] [0 4]] (REQUEST)
r 1.101383955 _2_ MAC  --- 0 AODV 48 [0 ffffffff 0 800] [energy 29.999665 ei 0.000 es 0.000 et 0.000 er 0.000] ------- [0:255 -1:255 30 0] [0x2 1 1 [1 0] [0 4]] (REQUEST)
r 1.101384067 _10_ MAC  --- 0 AODV 48 [0 ffffffff 0 800] [energy 29.999665 ei 0.000 es 0.000 et 0.000 er 0.000] ------- [0:255 -1:255 30 0] [0x2 1 1 [1 0] [0 4]] (REQUEST)
r 1.101384095 _7_ MAC  --- 0 AODV 48 [0 ffffffff 0 800] [energy 29.999665 ei 0.000 es 0.000 et 0.000 er 0.000] ------- [0:255 -1:255 30 0] [0x2 1 1 [1 0] [0 4]] (REQUEST)
r 1.101384143 _9_ MAC  --- 0 AODV 48 [0 ffffffff 0 800] [energy 29.999665 ei 0.000 es 0.000 et 0.000 er 0.000] ------- [0:255 -1:255 30 0] [0x2 1 1 [1 0] [0 4]] (REQUEST)
r 1.101384336 _1_ MAC  --- 0 AODV 48 [0 ffffffff 0 800] [energy 29.999665 ei 0.000 es 0.000 et 0.000 er 0.000] ------- [0:255 -1:255 30 0] [0x2 1 1 [1 0] [0 4]] (REQUEST)
r 1.101384508 _13_ MAC  --- 0 AODV 48 [0 ffffffff 0 800] [energy 29.999665 ei 0.000 es 0.000 et 0.000 er 0.000] ------- [0:255 -1:255 30 0] [0x2 1 1 [1 0] [0 4]] (REQUEST)
r 1.101384654 _11_ MAC  --- 0 AODV 48 [0 ffffffff 0 800] [energy 29.999665 ei 0.000 es 0.000 et 0.000 er 0.000] ------- [0:255 -1:255 30 0] [0x2 1 1 [1 0] [0 4]] (REQUEST)
r 1.101384807 _8_ MAC  --- 0 AODV 48 [0 ffffffff 0 800] [energy 29.999665 ei 0.000 es 0.000 et 0.000 er 0.000] ------- [0:255 -1:255 30 0] [0x2 1 1 [1 0] [0 4]] (REQUEST)
r 1.101384830 _12_ MAC  --- 0 AODV 48 [0 ffffffff 0 800] [energy 29.999665 ei 0.000 es 0.000 et 0.000 er 0.000] ------- [0:255 -1:255 30 0] [0x2 1 1 [1 0] [0 4]] (REQUEST)
r 1.101384969 _4_ MAC  --- 0 AODV 48 [0 ffffffff 0 800] [energy 29.999665 ei 0.000 es 0.000 et 0.000 er 0.000] ------- [0:255 -1:255 30 0] [0x2 1 1 [1 0] [0 4]] (REQUEST)
r 1.101385287 _3_ MAC  --- 0 AODV 48 [0 ffffffff 0 800] [energy 29.999665 ei 0.000 es 0.000 et 0.000 er 0.000] ------- [0:255 -1:255 30 0] [0x2 1 1 [1 0] [0 4]] (REQUEST)
r 1.101408212 _6_ RTR  --- 0 AODV 48 [0 ffffffff 0 800] [energy 29.999665 ei 0.000 es 0.000 et 0.000 er 0.000] ------- [0:255 -1:255 30 0] [0x2 1 1 [1 0] [0 4]] (REQUEST)
r 1.101408787 _5_ RTR  --- 0 AODV 48 [0 ffffffff 0 800] [energy 29.999665 ei 0.000 es 0.000 et 0.000 er 0.000] ------- [0:255 -1:255 30 0] [0x2 1 1 [1 0] [0 4]] (REQUEST)
r 1.101408955 _2_ RTR  --- 0 AODV 48 [0 ffffffff 0 800] [energy 29.999665 ei 0.000 es 0.000 et 0.000 er 0.000] ------- [0:255 -1:255 30 0] [0x2 1 1 [1 0] [0 4]] (REQUEST)
r 1.101409067 _10_ RTR  --- 0 AODV 48 [0 ffffffff 0 800] [energy 29.999665 ei 0.000 es 0.000 et 0.000 er 0.000] ------- [0:255 -1:255 30 0] [0x2 1 1 [1 0] [0 4]] (REQUEST)
r 1.101409095 _7_ RTR  --- 0 AODV 48 [0 ffffffff 0 800] [energy 29.999665 ei 0.000 es 0.000 et 0.000 er 0.000] ------- [0:255 -1:255 30 0] [0x2 1 1 [1 0] [0 4]] (REQUEST)
r 1.101409143 _9_ RTR  --- 0 AODV 48 [0 ffffffff 0 800] [energy 29.999665 ei 0.000 es 0.000 et 0.000 er 0.000] ------- [0:255 -1:255 30 0] [0x2 1 1 [1 0] [0 4]] (REQUEST)
r 1.101409336 _1_ RTR  --- 0 AODV 48 [0 ffffffff 0 800] [energy 29.999665 ei 0.000 es 0.000 et 0.000 er 0.000] ------- [0:255 -1:255 30 0] [0x2 1 1 [1 0] [0 4]] (REQUEST)
s 1.101409336 _1_ RTR  --- 0 AODV 44 [0 0 0 0] [energy 29.999665 ei 0.000 es 0.000 et 0.000 er 0.000] ------- [1:255 0:255 30 0] [0x4 1 [1 4] 10.000000] (REPLY)
r 1.101409508 _13_ RTR  --- 0 AODV 48 [0 ffffffff 0 800] [energy 29.999665 ei 0.000 es 0.000 et 0.000 er 0.000] ------- [0:255 -1:255 30 0] [0x2 1 1 [1 0] [0 4]] (REQUEST)
r 1.101409654 _11_ RTR  --- 0 AODV 48 [0 ffffffff 0 800] [energy 29.999665 ei 0.000 es 0.000 et 0.000 er 0.000] ------- [0:255 -1:255 30 0] [0x2 1 1 [1 0] [0 4]] (REQUEST)
r 1.101409807 _8_ RTR  --- 0 AODV 48 [0 ffffffff 0 800] [energy 29.999665 ei 0.000 es 0.000 et 0.000 er 0.000] ------- [0:255 -1:255 30 0] [0x2 1 1 [1 0] [0 4]] (REQUEST)
r 1.101409830 _12_ RTR  --- 0 AODV 48 [0 ffffffff 0 800] [energy 29.999665 ei 0.000 es 0.000 et 0.000 er 0.000] ------- [0:255 -1:255 30 0] [0x2 1 1 [1 0] [0 4]] (REQUEST)
r 1.101409969 _4_ RTR  --- 0 AODV 48 [0 ffffffff 0 800] [energy 29.999665 ei 0.000 es 0.000 et 0.000 er 0.000] ------- [0:255 -1:255 30 0] [0x2 1 1 [1 0] [0 4]] (REQUEST)
r 1.101410287 _3_ RTR  --- 0 AODV 48 [0 ffffffff 0 800] [energy 29.999665 ei 0.000 es 0.000 et 0.000 er 0.000] ------- [0:255 -1:255 30 0] [0x2 1 1 [1 0] [0 4]] (REQUEST)
s 1.101550259 _6_ RTR  --- 0 AODV 48 [0 ffffffff 0 800] [energy 29.999665 ei 0.000 es 0.000 et 0.000 er 0.000] ------- [6:255 -1:255 29 0] [0x2 2 1 [1 0] [0 4]] (REQUEST)
s 1.101624336 _1_ MAC  --- 0 ARP 86 [0 ffffffff 1 806] [energy 29.999665 ei 0.000 es 0.000 et 0.000 er 0.000] ------- [REQUEST 1/1 0/0]
N -t 1.101625 -n 9 -e 29.999393
N -t 1.101625 -n 2 -e 29.999393
N -t 1.101625 -n 10 -e 29.999393
N -t 1.101625 -n 11 -e 29.999393
N -t 1.101625 -n 8 -e 29.999393
N -t 1.101625 -n 13 -e 29.999393
N -t 1.101625 -n 4 -e 29.999393
N -t 1.101625 -n 5 -e 29.999393
N -t 1.101625 -n 12 -e 29.999393
N -t 1.101625 -n 6 -e 29.999393
N -t 1.101626 -n 7 -e 29.999393
N -t 1.101626 -n 0 -e 29.999169
N -t 1.101626 -n 3 -e 29.999393
s 1.101838232 _3_ RTR  --- 0 AODV 48 [0 ffffffff 0 800] [energy 29.999393 ei 0.000 es 0.000 et 0.000 er 0.001] ------- [3:255 -1:255 29 0] [0x2 2 1 [1 0] [0 4]] (REQUEST)
s 1.102290013 _5_ RTR  --- 0 AODV 48 [0 ffffffff 0 800] [energy 29.999393 ei 0.000 es 0.000 et 0.000 er 0.001] ------- [5:255 -1:255 29 0] [0x2 2 1 [1 0] [0 4]] (REQUEST)
r 1.102312719 _9_ MAC  --- 0 ARP 28 [0 ffffffff 1 806] [energy 29.999393 ei 0.000 es 0.000 et 0.000 er 0.001] ------- [REQUEST 1/1 0/0]
r 1.102312730 _2_ MAC  --- 0 ARP 28 [0 ffffffff 1 806] [energy 29.999393 ei 0.000 es 0.000 et 0.000 er 0.001] ------- [REQUEST 1/1 0/0]
r 1.102312858 _10_ MAC  --- 0 ARP 28 [0 ffffffff 1 806] [energy 29.999393 ei 0.000 es 0.000 et 0.000 er 0.001] ------- [REQUEST 1/1 0/0]
r 1.102312864 _11_ MAC  --- 0 ARP 28 [0 ffffffff 1 806] [energy 29.999393 ei 0.000 es 0.000 et 0.000 er 0.001] ------- [REQUEST 1/1 0/0]
r 1.102313032 _8_ MAC  --- 0 ARP 28 [0 ffffffff 1 806] [energy 29.999393 ei 0.000 es 0.000 et 0.000 er 0.001] ------- [REQUEST 1/1 0/0]
r 1.102313036 _13_ MAC  --- 0 ARP 28 [0 ffffffff 1 806] [energy 29.999393 ei 0.000 es 0.000 et 0.000 er 0.001] ------- [REQUEST 1/1 0/0]
r 1.102313112 _4_ MAC  --- 0 ARP 28 [0 ffffffff 1 806] [energy 29.999393 ei 0.000 es 0.000 et 0.000 er 0.001] ------- [REQUEST 1/1 0/0]
r 1.102313132 _5_ MAC  --- 0 ARP 28 [0 ffffffff 1 806] [energy 29.999393 ei 0.000 es 0.000 et 0.000 er 0.001] ------- [REQUEST 1/1 0/0]
r 1.102313136 _12_ MAC  --- 0 ARP 28 [0 ffffffff 1 806] [energy 29.999393 ei 0.000 es 0.000 et 0.000 er 0.001] ------- [REQUEST 1/1 0/0]
r 1.102313466 _6_ MAC  --- 0 ARP 28 [0 ffffffff 1 806] [energy 29.999393 ei 0.000 es 0.000 et 0.000 er 0.001] ------- [REQUEST 1/1 0/0]
r 1.102313614 _7_ MAC  --- 0 ARP 28 [0 ffffffff 1 806] [energy 29.999393 ei 0.000 es 0.000 et 0.000 er 0.001] ------- [REQUEST 1/1 0/0]
r 1.102313672 _0_ MAC  --- 0 ARP 28 [0 ffffffff 1 806] [energy 29.999169 ei 0.000 es 0.000 et 0.001 er 0.000] ------- [REQUEST 1/1 0/0]
r 1.102313722 _3_ MAC  --- 0 ARP 28 [0 ffffffff 1 806] [energy 29.999393 ei 0.000 es 0.000 et 0.000 er 0.001] ------- [REQUEST 1/1 0/0]
s 1.102603722 _3_ MAC  --- 0 AODV 106 [0 ffffffff 3 800] [energy 29.999393 ei 0.000 es 0.000 et 0.000 er 0.001] ------- [3:255 -1:255 29 0] [0x2 2 1 [1 0] [0 4]] (REQUEST)
N -t 1.102604 -n 12 -e 29.999058
N -t 1.102604 -n 8 -e 29.999058
N -t 1.102605 -n 13 -e 29.999058
N -t 1.102605 -n 11 -e 29.999058
N -t 1.102605 -n 9 -e 29.999058
N -t 1.102605 -n 1 -e 29.998876
N -t 1.102605 -n 7 -e 29.999058
N -t 1.102605 -n 5 -e 29.999058
N -t 1.102605 -n 2 -e 29.999058
N -t 1.102606 -n 4 -e 29.999058
N -t 1.102606 -n 10 -e 29.999058
N -t 1.102606 -n 6 -e 29.999058
N -t 1.102606 -n 0 -e 29.998834
s 1.103051423 _4_ RTR  --- 0 AODV 48 [0 ffffffff 0 800] [energy 29.999058 ei 0.000 es 0.000 et 0.000 er 0.001] ------- [4:255 -1:255 29 0] [0x2 2 1 [1 0] [0 4]] (REQUEST)
r 1.103452308 _12_ MAC  --- 0 AODV 48 [0 ffffffff 3 800] [energy 29.999058 ei 0.000 es 0.000 et 0.000 er 0.001] ------- [3:255 -1:255 29 0] [0x2 2 1 [1 0] [0 4]] (REQUEST)
r 1.103452425 _8_ MAC  --- 0 AODV 48 [0 ffffffff 3 800] [energy 29.999058 ei 0.000 es 0.000 et 0.000 er 0.001] ------- [3:255 -1:255 29 0] [0x2 2 1 [1 0] [0 4]] (REQUEST)
r 1.103452523 _13_ MAC  --- 0 AODV 48 [0 ffffffff 3 800] [energy 29.999058 ei 0.000 es 0.000 et 0.000 er 0.001] ------- [3:255 -1:255 29 0] [0x2 2 1 [1 0] [0 4]] (REQUEST)
r 1.103452581 _11_ MAC  --- 0 AODV 48 [0 ffffffff 3 800] [energy 29.999058 ei 0.000 es 0.000 et 0.000 er 0.001] ------- [3:255 -1:255 29 0] [0x2 2 1 [1 0] [0 4]] (REQUEST)
r 1.103452974 _9_ MAC  --- 0 AODV 48 [0 ffffffff 3 800] [energy 29.999058 ei 0.000 es 0.000 et 0.000 er 0.001] ------- [3:255 -1:255 29 0] [0x2 2 1 [1 0] [0 4]] (REQUEST)
r 1.103453107 _1_ MAC  --- 0 AODV 48 [0 ffffffff 3 800] [energy 29.998876 ei 0.000 es 0.000 et 0.000 er 0.001] ------- [3:255 -1:255 29 0] [0x2 2 1 [1 0] [0 4]] (REQUEST)
r 1.103453153 _7_ MAC  --- 0 AODV 48 [0 ffffffff 3 800] [energy 29.999058 ei 0.000 es 0.000 et 0.000 er 0.001] ------- [3:255 -1:255 29 0] [0x2 2 1 [1 0] [0 4]] (REQUEST)
r 1.103453222 _5_ MAC  --- 0 AODV 48 [0 ffffffff 3 800] [energy 29.999058 ei 0.000 es 0.000 et 0.000 er 0.001] ------- [3:255 -1:255 29 0] [0x2 2 1 [1 0] [0 4]] (REQUEST)
r 1.103453373 _2_ MAC  --- 0 AODV 48 [0 ffffffff 3 800] [energy 29.999058 ei 0.000 es 0.000 et 0.000 er 0.001] ------- [3:255 -1:255 29 0] [0x2 2 1 [1 0] [0 4]] (REQUEST)
r 1.103453526 _4_ MAC  --- 0 AODV 48 [0 ffffffff 3 800] [energy 29.999058 ei 0.000 es 0.000 et 0.000 er 0.001] ------- [3:255 -1:255 29 0] [0x2 2 1 [1 0] [0 4]] (REQUEST)
r 1.103453613 _10_ MAC  --- 0 AODV 48 [0 ffffffff 3 800] [energy 29.999058 ei 0.000 es 0.000 et 0.000 er 0.001] ------- [3:255 -1:255 29 0] [0x2 2 1 [1 0] [0 4]] (REQUEST)
r 1.103453866 _6_ MAC  --- 0 AODV 48 [0 ffffffff 3 800] [energy 29.999058 ei 0.000 es 0.000 et 0.000 er 0.001] ------- [3:255 -1:255 29 0] [0x2 2 1 [1 0] [0 4]] (REQUEST)
r 1.103454008 _0_ MAC  --- 0 AODV 48 [0 ffffffff 3 800] [energy 29.998834 ei 0.000 es 0.000 et 0.001 er 0.001] ------- [3:255 -1:255 29 0] [0x2 2 1 [1 0] [0 4]] (REQUEST)
r 1.103477308 _12_ RTR  --- 0 AODV 48 [0 ffffffff 3 800] [energy 29.999058 ei 0.000 es 0.000 et 0.000 er 0.001] ------- [3:255 -1:255 29 0] [0x2 2 1 [1 0] [0 4]] (REQUEST)
r 1.103477425 _8_ RTR  --- 0 AODV 48 [0 ffffffff 3 800] [energy 29.999058 ei 0.000 es 0.000 et 0.000 er 0.001] ------- [3:255 -1:255 29 0] [0x2 2 1 [1 0] [0 4]] (REQUEST)
r 1.103477523 _13_ RTR  --- 0 AODV 48 [0 ffffffff 3 800] [energy 29.999058 ei 0.000 es 0.000 et 0.000 er 0.001] ------- [3:255 -1:255 29 0] [0x2 2 1 [1 0] [0 4]] (REQUEST)
r 1.103477581 _11_ RTR  --- 0 AODV 48 [0 ffffffff 3 800] [energy 29.999058 ei 0.000 es 0.000 et 0.000 er 0.001] ------- [3:255 -1:255 29 0] [0x2 2 1 [1 0] [0 4]] (REQUEST)
r 1.103477974 _9_ RTR  --- 0 AODV 48 [0 ffffffff 3 800] [energy 29.999058 ei 0.000 es 0.000 et 0.000 er 0.001] ------- [3:255 -1:255 29 0] [0x2 2 1 [1 0] [0 4]] (REQUEST)
r 1.103478107 _1_ RTR  --- 0 AODV 48 [0 ffffffff 3 800] [energy 29.998876 ei 0.000 es 0.000 et 0.000 er 0.001] ------- [3:255 -1:255 29 0] [0x2 2 1 [1 0] [0 4]] (REQUEST)
r 1.103478153 _7_ RTR  --- 0 AODV 48 [0 ffffffff 3 800] [energy 29.999058 ei 0.000 es 0.000 et 0.000 er 0.001] ------- [3:255 -1:255 29 0] [0x2 2 1 [1 0] [0 4]] (REQUEST)
r 1.103478222 _5_ RTR  --- 0 AODV 48 [0 ffffffff 3 800] [energy 29.999058 ei 0.000 es 0.000 et 0.000 er 0.001] ------- [3:255 -1:255 29 0] [0x2 2 1 [1 0] [0 4]] (REQUEST)
r 1.103478373 _2_ RTR  --- 0 AODV 48 [0 ffffffff 3 800] [energy 29.999058 ei 0.000 es 0.000 et 0.000 er 0.001] ------- [3:255 -1:255 29 0] [0x2 2 1 [1 0] [0 4]] (REQUEST)
r 1.103478526 _4_ RTR  --- 0 AODV 48 [0 ffffffff 3 800] [energy 29.999058 ei 0.000 es 0.000 et 0.000 er 0.001] ------- [3:255 -1:255 29 0] [0x2 2 1 [1 0] [0 4]] (REQUEST)
r 1.103478613 _10_ RTR  --- 0 AODV 48 [0 ffffffff 3 800] [energy 29.999058 ei 0.000 es 0.000 et 0.000 er 0.001] ------- [3:255 -1:255 29 0] [0x2 2 1 [1 0] [0 4]] (REQUEST)
r 1.103478866 _6_ RTR  --- 0 AODV 48 [0 ffffffff 3 800] [energy 29.999058 ei 0.000 es 0.000 et 0.000 er 0.001] ------- [3:255 -1:255 29 0] [0x2 2 1 [1 0] [0 4]] (REQUEST)
r 1.103479008 _0_ RTR  --- 0 AODV 48 [0 ffffffff 3 800] [energy 29.998834 ei 0.000 es 0.000 et 0.001 er 0.001] ------- [3:255 -1:255 29 0] [0x2 2 1 [1 0] [0 4]] (REQUEST)
s 1.103623866 _6_ MAC  --- 0 AODV 106 [0 ffffffff 6 800] [energy 29.999058 ei 0.000 es 0.000 et 0.000 er 0.001] ------- [6:255 -1:255 29 0] [0x2 2 1 [1 0] [0 4]] (REQUEST)
s 1.103624008 _0_ MAC  --- 0 RTS 44 [36b 1 0 0] [energy 29.998834 ei 0.000 es 0.000 et 0.001 er 0.001] 
N -t 1.103624 -n 0 -e 29.998405
N -t 1.103624 -n 6 -e 29.998499
N -t 1.103625 -n 5 -e 29.998723
N -t 1.103625 -n 2 -e 29.998723
N -t 1.103625 -n 10 -e 29.998723
N -t 1.103625 -n 5 -e 29.998723
N -t 1.103625 -n 9 -e 29.998723
N -t 1.103625 -n 7 -e 29.998723
N -t 1.103625 -n 2 -e 29.998723
N -t 1.103625 -n 1 -e 29.998541
N -t 1.103625 -n 10 -e 29.998723
N -t 1.103625 -n 7 -e 29.998723
N -t 1.103625 -n 9 -e 29.998723
N -t 1.103625 -n 13 -e 29.998723
N -t 1.103625 -n 11 -e 29.998723
N -t 1.103625 -n 1 -e 29.998541
D 1.103625344 _1_ MAC  COL 0 RTS 44 [36b 1 0 0] [energy 29.998541 ei 0.000 es 0.000 et 0.000 er 0.001] 
N -t 1.103625 -n 8 -e 29.998723
N -t 1.103626 -n 13 -e 29.998723
N -t 1.103626 -n 12 -e 29.998723
N -t 1.103626 -n 4 -e 29.998723
N -t 1.103626 -n 11 -e 29.998723
N -t 1.103626 -n 8 -e 29.998723
N -t 1.103626 -n 12 -e 29.998723
N -t 1.103626 -n 4 -e 29.998723
N -t 1.103626 -n 3 -e 29.998499
N -t 1.103626 -n 3 -e 29.998499
s 1.103755526 _13_ RTR  --- 0 AODV 48 [0 ffffffff 0 800] [energy 29.998723 ei 0.000 es 0.000 et 0.000 er 0.001] ------- [13:255 -1:255 29 0] [0x2 2 1 [1 0] [0 4]] (REQUEST)
s 1.104000000 _0_ AGT  --- 1 cbr 500 [0 0 0 0] [energy 29.998405 ei 0.000 es 0.000 et 0.001 er 0.001] ------- [0:1 1:0 32 0] [1] 0 0
r 1.104000000 _0_ RTR  --- 1 cbr 500 [0 0 0 0] [energy 29.998405 ei 0.000 es 0.000 et 0.001 er 0.001] ------- [0:1 1:0 32 0] [1] 0 0
D 1.104472521 _5_ MAC  COL 0 AODV 106 [0 ffffffff 6 800] [energy 29.998723 ei 0.000 es 0.000 et 0.000 er 0.001] ------- [6:255 -1:255 29 0] [0x2 2 1 [1 0] [0 4]] (REQUEST)
D 1.104472612 _2_ MAC  COL 0 AODV 106 [0 ffffffff 6 800] [energy 29.998723 ei 0.000 es 0.000 et 0.000 er 0.001] ------- [6:255 -1:255 29 0] [0x2 2 1 [1 0] [0 4]] (REQUEST)
D 1.104472724 _10_ MAC  COL 0 AODV 106 [0 ffffffff 6 800] [energy 29.998723 ei 0.000 es 0.000 et 0.000 er 0.001] ------- [6:255 -1:255 29 0] [0x2 2 1 [1 0] [0 4]] (REQUEST)
D 1.104472827 _9_ MAC  COL 0 AODV 106 [0 ffffffff 6 800] [energy 29.998723 ei 0.000 es 0.000 et 0.000 er 0.001] ------- [6:255 -1:255 29 0] [0x2 2 1 [1 0] [0 4]] (REQUEST)
D 1.104472927 _7_ MAC  COL 0 AODV 106 [0 ffffffff 6 800] [energy 29.998723 ei 0.000 es 0.000 et 0.000 er 0.001] ------- [6:255 -1:255 29 0] [0x2 2 1 [1 0] [0 4]] (REQUEST)
D 1.104472996 _1_ MAC  COL 0 AODV 106 [0 ffffffff 6 800] [energy 29.998541 ei 0.000 es 0.000 et 0.000 er 0.001] ------- [6:255 -1:255 29 0] [0x2 2 1 [1 0] [0 4]] (REQUEST)
D 1.104473219 _13_ MAC  COL 0 AODV 106 [0 ffffffff 6 800] [energy 29.998723 ei 0.000 es 0.000 et 0.000 er 0.001] ------- [6:255 -1:255 29 0] [0x2 2 1 [1 0] [0 4]] (REQUEST)
D 1.104473338 _11_ MAC  COL 0 AODV 106 [0 ffffffff 6 800] [energy 29.998723 ei 0.000 es 0.000 et 0.000 er 0.001] ------- [6:255 -1:255 29 0] [0x2 2 1 [1 0] [0 4]] (REQUEST)
D 1.104473496 _8_ MAC  COL 0 AODV 106 [0 ffffffff 6 800] [energy 29.998723 ei 0.000 es 0.000 et 0.000 er 0.001] ------- [6:255 -1:255 29 0] [0x2 2 1 [1 0] [0 4]] (REQUEST)
D 1.104473528 _12_ MAC  COL 0 AODV 106 [0 ffffffff 6 800] [energy 29.998723 ei 0.000 es 0.000 et 0.000 er 0.001] ------- [6:255 -1:255 29 0] [0x2 2 1 [1 0] [0 4]] (REQUEST)
D 1.104473623 _4_ MAC  COL 0 AODV 106 [0 ffffffff 6 800] [energy 29.998723 ei 0.000 es 0.000 et 0.000 er 0.001] ------- [6:255 -1:255 29 0] [0x2 2 1 [1 0] [0 4]] (REQUEST)
D 1.104474011 _3_ MAC  COL 0 AODV 106 [0 ffffffff 6 800] [energy 29.998499 ei 0.000 es 0.000 et 0.001 er 0.001] ------- [6:255 -1:255 29 0] [0x2 2 1 [1 0] [0 4]] (REQUEST)
s 1.104500597 _8_ RTR  --- 0 AODV 48 [0 ffffffff 0 800] [energy 29.998723 ei 0.000 es 0.000 et 0.000 er 0.001] ------- [8:255 -1:255 29 0] [0x2 2 1 [1 0] [0 4]] (REQUEST)
s 1.104538713 _7_ RTR  --- 0 AODV 48 [0 ffffffff 0 800] [energy 29.998723 ei 0.000 es 0.000 et 0.000 er 0.001] ------- [7:255 -1:255 29 0] [0x2 2 1 [1 0] [0 4]] (REQUEST)
s 1.105006521 _5_ MAC  --- 0 AODV 106 [0 ffffffff 5 800] [energy 29.998723 ei 0.000 es 0.000 et 0.000 er 0.001] ------- [5:255 -1:255 29 0] [0x2 2 1 [1 0] [0 4]] (REQUEST)
N -t 1.105007 -n 9 -e 29.998388
N -t 1.105007 -n 7 -e 29.998388
N -t 1.105007 -n 2 -e 29.998388
N -t 1.105007 -n 6 -e 29.998164
N -t 1.105007 -n 13 -e 29.998388
N -t 1.105007 -n 0 -e 29.998070
N -t 1.105007 -n 1 -e 29.998206
N -t 1.105007 -n 10 -e 29.998388
N -t 1.105007 -n 11 -e 29.998388
N -t 1.105008 -n 8 -e 29.998388
N -t 1.105008 -n 12 -e 29.998388
N -t 1.105008 -n 3 -e 29.998164
N -t 1.105008 -n 4 -e 29.998388
s 1.105820689 _2_ RTR  --- 0 AODV 48 [0 ffffffff 0 800] [energy 29.998388 ei 0.000 es 0.000 et 0.000 er 0.002] ------- [2:255 -1:255 29 0] [0x2 2 1 [1 0] [0 4]] (REQUEST)
r 1.105854977 _9_ MAC  --- 0 AODV 48 [0 ffffffff 5 800] [energy 29.998388 ei 0.000 es 0.000 et 0.000 er 0.002] ------- [5:255 -1:255 29 0] [0x2 2 1 [1 0] [0 4]] (REQUEST)
r 1.105855090 _7_ MAC  --- 0 AODV 48 [0 ffffffff 5 800] [energy 29.998388 ei 0.000 es 0.000 et 0.000 er 0.002] ------- [5:255 -1:255 29 0] [0x2 2 1 [1 0] [0 4]] (REQUEST)
r 1.105855106 _2_ MAC  --- 0 AODV 48 [0 ffffffff 5 800] [energy 29.998388 ei 0.000 es 0.000 et 0.000 er 0.002] ------- [5:255 -1:255 29 0] [0x2 2 1 [1 0] [0 4]] (REQUEST)
r 1.105855175 _6_ MAC  --- 0 AODV 48 [0 ffffffff 5 800] [energy 29.998164 ei 0.000 es 0.000 et 0.001 er 0.001] ------- [5:255 -1:255 29 0] [0x2 2 1 [1 0] [0 4]] (REQUEST)
r 1.105855248 _13_ MAC  --- 0 AODV 48 [0 ffffffff 5 800] [energy 29.998388 ei 0.000 es 0.000 et 0.000 er 0.002] ------- [5:255 -1:255 29 0] [0x2 2 1 [1 0] [0 4]] (REQUEST)
r 1.105855307 _0_ MAC  --- 0 AODV 48 [0 ffffffff 5 800] [energy 29.998070 ei 0.000 es 0.000 et 0.001 er 0.001] ------- [5:255 -1:255 29 0] [0x2 2 1 [1 0] [0 4]] (REQUEST)
r 1.105855317 _1_ MAC  --- 0 AODV 48 [0 ffffffff 5 800] [energy 29.998206 ei 0.000 es 0.000 et 0.000 er 0.001] ------- [5:255 -1:255 29 0] [0x2 2 1 [1 0] [0 4]] (REQUEST)
r 1.105855402 _10_ MAC  --- 0 AODV 48 [0 ffffffff 5 800] [energy 29.998388 ei 0.000 es 0.000 et 0.000 er 0.002] ------- [5:255 -1:255 29 0] [0x2 2 1 [1 0] [0 4]] (REQUEST)
r 1.105855447 _11_ MAC  --- 0 AODV 48 [0 ffffffff 5 800] [energy 29.998388 ei 0.000 es 0.000 et 0.000 er 0.002] ------- [5:255 -1:255 29 0] [0x2 2 1 [1 0] [0 4]] (REQUEST)
r 1.105855579 _8_ MAC  --- 0 AODV 48 [0 ffffffff 5 800] [energy 29.998388 ei 0.000 es 0.000 et 0.000 er 0.002] ------- [5:255 -1:255 29 0] [0x2 2 1 [1 0] [0 4]] (REQUEST)
r 1.105855582 _12_ MAC  --- 0 AODV 48 [0 ffffffff 5 800] [energy 29.998388 ei 0.000 es 0.000 et 0.000 er 0.002] ------- [5:255 -1:255 29 0] [0x2 2 1 [1 0] [0 4]] (REQUEST)
r 1.105856021 _3_ MAC  --- 0 AODV 48 [0 ffffffff 5 800] [energy 29.998164 ei 0.000 es 0.000 et 0.001 er 0.001] ------- [5:255 -1:255 29 0] [0x2 2 1 [1 0] [0 4]] (REQUEST)
r 1.105856085 _4_ MAC  --- 0 AODV 48 [0 ffffffff 5 800] [energy 29.998388 ei 0.000 es 0.000 et 0.000 er 0.002] ------- [5:255 -1:255 29 0] [0x2 2 1 [1 0] [0 4]] (REQUEST)
r 1.105879977 _9_ RTR  --- 0 AODV 48 [0 ffffffff 5 800] [energy 29.998388 ei 0.000 es 0.000 et 0.000 er 0.002] ------- [5:255 -1:255 29 0] [0x2 2 1 [1 0] [0 4]] (REQUEST)
r 1.105880090 _7_ RTR  --- 0 AODV 48 [0 ffffffff 5 800] [energy 29.998388 ei 0.000 es 0.000 et 0.000 er 0.002] ------- [5:255 -1:255 29 0] [0x2 2 1 [1 0] [0 4]] (REQUEST)
r 1.105880106 _2_ RTR  --- 0 AODV 48 [0 ffffffff 5 800] [energy 29.998388 ei 0.000 es 0.000 et 0.000 er 0.002] ------- [5:255 -1:255 29 0] [0x2 2 1 [1 0] [0 4]] (REQUEST)
r 1.105880175 _6_ RTR  --- 0 AODV 48 [0 ffffffff 5 800] [energy 29.998164 ei 0.000 es 0.000 et 0.001 er 0.001] ------- [5:255 -1:255 29 0] [0x2 2 1 [1 0] [0 4]] (REQUEST)
r 1.105880248 _13_ RTR  --- 0 AODV 48 [0 ffffffff 5 800] [energy 29.998388 ei 0.000 es 0.000 et 0.000 er 0.002] ------- [5:255 -1:255 29 0] [0x2 2 1 [1 0] [0 4]] (REQUEST)
r 1.105880307 _0_ RTR  --- 0 AODV 48 [0 ffffffff 5 800] [energy 29.998070 ei 0.000 es 0.000 et 0.001 er 0.001] ------- [5:255 -1:255 29 0] [0x2 2 1 [1 0] [0 4]] (REQUEST)
r 1.105880317 _1_ RTR  --- 0 AODV 48 [0 ffffffff 5 800] [energy 29.998206 ei 0.000 es 0.000 et 0.000 er 0.001] ------- [5:255 -1:255 29 0] [0x2 2 1 [1 0] [0 4]] (REQUEST)
r 1.105880402 _10_ RTR  --- 0 AODV 48 [0 ffffffff 5 800] [energy 29.998388 ei 0.000 es 0.000 et 0.000 er 0.002] ------- [5:255 -1:255 29 0] [0x2 2 1 [1 0] [0 4]] (REQUEST)
r 1.105880447 _11_ RTR  --- 0 AODV 48 [0 ffffffff 5 800] [energy 29.998388 ei 0.000 es 0.000 et 0.000 er 0.002] ------- [5:255 -1:255 29 0] [0x2 2 1 [1 0] [0 4]] (REQUEST)
r 1.105880579 _8_ RTR  --- 0 AODV 48 [0 ffffffff 5 800] [energy 29.998388 ei 0.000 es 0.000 et 0.000 er 0.002] ------- [5:255 -1:255 29 0] [0x2 2 1 [1 0] [0 4]] (REQUEST)
r 1.105880582 _12_ RTR  --- 0 AODV 48 [0 ffffffff 5 800] [energy 29.998388 ei 0.000 es 0.000 et 0.000 er 0.002] ------- [5:255 -1:255 29 0] [0x2 2 1 [1 0] [0 4]] (REQUEST)
r 1.105881021 _3_ RTR  --- 0 AODV 48 [0 ffffffff 5 800] [energy 29.998164 ei 0.000 es 0.000 et 0.001 er 0.001] ------- [5:255 -1:255 29 0] [0x2 2 1 [1 0] [0 4]] (REQUEST)
r 1.105881085 _4_ RTR  --- 0 AODV 48 [0 ffffffff 5 800] [energy 29.998388 ei 0.000 es 0.000 et 0.000 er 0.002] ------- [5:255 -1:255 29 0] [0x2 2 1 [1 0] [0 4]] (REQUEST)
s 1.105965090 _7_ MAC  --- 0 AODV 106 [0 ffffffff 7 800] [energy 29.998388 ei 0.000 es 0.000 et 0.000 er 0.002] ------- [7:255 -1:255 29 0] [0x2 2 1 [1 0] [0 4]] (REQUEST)
N -t 1.105966 -n 5 -e 29.997829
N -t 1.105966 -n 13 -e 29.998053
N -t 1.105966 -n 9 -e 29.998053
N -t 1.105966 -n 6 -e 29.997829
N -t 1.105966 -n 0 -e 29.997735
N -t 1.105966 -n 2 -e 29.998053
N -t 1.105966 -n 11 -e 29.998053
N -t 1.105966 -n 12 -e 29.998053
N -t 1.105966 -n 8 -e 29.998053
N -t 1.105966 -n 1 -e 29.997871
N -t 1.105967 -n 3 -e 29.997829
N -t 1.105967 -n 10 -e 29.998053
N -t 1.105967 -n 4 -e 29.998053
r 1.106813659 _5_ MAC  --- 0 AODV 48 [0 ffffffff 7 800] [energy 29.997829 ei 0.000 es 0.000 et 0.001 er 0.002] ------- [7:255 -1:255 29 0] [0x2 2 1 [1 0] [0 4]] (REQUEST)
r 1.106813964 _13_ MAC  --- 0 AODV 48 [0 ffffffff 7 800] [energy 29.998053 ei 0.000 es 0.000 et 0.000 er 0.002] ------- [7:255 -1:255 29 0] [0x2 2 1 [1 0] [0 4]] (REQUEST)
r 1.106813986 _9_ MAC  --- 0 AODV 48 [0 ffffffff 7 800] [energy 29.998053 ei 0.000 es 0.000 et 0.000 er 0.002] ------- [7:255 -1:255 29 0] [0x2 2 1 [1 0] [0 4]] (REQUEST)
r 1.106814150 _6_ MAC  --- 0 AODV 48 [0 ffffffff 7 800] [energy 29.997829 ei 0.000 es 0.000 et 0.001 er 0.002] ------- [7:255 -1:255 29 0] [0x2 2 1 [1 0] [0 4]] (REQUEST)
r 1.106814186 _0_ MAC  --- 0 AODV 48 [0 ffffffff 7 800] [energy 29.997735 ei 0.000 es 0.000 et 0.001 er 0.001] ------- [7:255 -1:255 29 0] [0x2 2 1 [1 0] [0 4]] (REQUEST)
r 1.106814237 _2_ MAC  --- 0 AODV 48 [0 ffffffff 7 800] [energy 29.998053 ei 0.000 es 0.000 et 0.000 er 0.002] ------- [7:255 -1:255 29 0] [0x2 2 1 [1 0] [0 4]] (REQUEST)
r 1.106814285 _11_ MAC  --- 0 AODV 48 [0 ffffffff 7 800] [energy 29.998053 ei 0.000 es 0.000 et 0.000 er 0.002] ------- [7:255 -1:255 29 0] [0x2 2 1 [1 0] [0 4]] (REQUEST)
r 1.106814293 _12_ MAC  --- 0 AODV 48 [0 ffffffff 7 800] [energy 29.998053 ei 0.000 es 0.000 et 0.000 er 0.002] ------- [7:255 -1:255 29 0] [0x2 2 1 [1 0] [0 4]] (REQUEST)
r 1.106814353 _8_ MAC  --- 0 AODV 48 [0 ffffffff 7 800] [energy 29.998053 ei 0.000 es 0.000 et 0.000 er 0.002] ------- [7:255 -1:255 29 0] [0x2 2 1 [1 0] [0 4]] (REQUEST)
r 1.106814368 _1_ MAC  --- 0 AODV 48 [0 ffffffff 7 800] [energy 29.997871 ei 0.000 es 0.000 et 0.000 er 0.002] ------- [7:255 -1:255 29 0] [0x2 2 1 [1 0] [0 4]] (REQUEST)
r 1.106814521 _3_ MAC  --- 0 AODV 48 [0 ffffffff 7 800] [energy 29.997829 ei 0.000 es 0.000 et 0.001 er 0.002] ------- [7:255 -1:255 29 0] [0x2 2 1 [1 0] [0 4]] (REQUEST)
r 1.106814538 _10_ MAC  --- 0 AODV 48 [0 ffffffff 7 800] [energy 29.998053 ei 0.000 es 0.000 et 0.000 er 0.002] ------- [7:255 -1:255 29 0] [0x2 2 1 [1 0] [0 4]] (REQUEST)
r 1.106815143 _4_ MAC  --- 0 AODV 48 [0 ffffffff 7 800] [energy 29.998053 ei 0.000 es 0.000 et 0.000 er 0.002] ------- [7:255 -1:255 29 0] [0x2 2 1 [1 0] [0 4]] (REQUEST)
r 1.106838659 _5_ RTR  --- 0 AODV 48 [0 ffffffff 7 800] [energy 29.997829 ei 0.000 es 0.000 et 0.001 er 0.002] ------- [7:255 -1:255 29 0] [0x2 2 1 [1 0] [0 4]] (REQUEST)
r 1.106838964 _13_ RTR  --- 0 AODV 48 [0 ffffffff 7 800] [energy 29.998053 ei 0.000 es 0.000 et 0.000 er 0.002] ------- [7:255 -1:255 29 0] [0x2 2 1 [1 0] [0 4]] (REQUEST)
r 1.106838986 _9_ RTR  --- 0 AODV 48 [0 ffffffff 7 800] [energy 29.998053 ei 0.000 es 0.000 et 0.000 er 0.002] ------- [7:255 -1:255 29 0] [0x2 2 1 [1 0] [0 4]] (REQUEST)
r 1.106839150 _6_ RTR  --- 0 AODV 48 [0 ffffffff 7 800] [energy 29.997829 ei 0.000 es 0.000 et 0.001 er 0.002] ------- [7:255 -1:255 29 0] [0x2 2 1 [1 0] [0 4]] (REQUEST)
r 1.106839186 _0_ RTR  --- 0 AODV 48 [0 ffffffff 7 800] [energy 29.997735 ei 0.000 es 0.000 et 0.001 er 0.001] ------- [7:255 -1:255 29 0] [0x2 2 1 [1 0] [0 4]] (REQUEST)
r 1.106839237 _2_ RTR  --- 0 AODV 48 [0 ffffffff 7 800] [energy 29.998053 ei 0.000 es 0.000 et 0.000 er 0.002] ------- [7:255 -1:255 29 0] [0x2 2 1 [1 0] [0 4]] (REQUEST)
r 1.106839285 _11_ RTR  --- 0 AODV 48 [0 ffffffff 7 800] [energy 29.998053 ei 0.000 es 0.000 et 0.000 er 0.002] ------- [7:255 -1:255 29 0] [0x2 2 1 [1 0] [0 4]] (REQUEST)
r 1.106839293 _12_ RTR  --- 0 AODV 48 [0 ffffffff 7 800] [energy 29.998053 ei 0.000 es 0.000 et 0.000 er 0.002] ------- [7:255 -1:255 29 0] [0x2 2 1 [1 0] [0 4]] (REQUEST)
r 1.106839353 _8_ RTR  --- 0 AODV 48 [0 ffffffff 7 800] [energy 29.998053 ei 0.000 es 0.000 et 0.000 er 0.002] ------- [7:255 -1:255 29 0] [0x2 2 1 [1 0] [0 4]] (REQUEST)
r 1.106839368 _1_ RTR  --- 0 AODV 48 [0 ffffffff 7 800] [energy 29.997871 ei 0.000 es 0.000 et 0.000 er 0.002] ------- [7:255 -1:255 29 0] [0x2 2 1 [1 0] [0 4]] (REQUEST)
r 1.106839521 _3_ RTR  --- 0 AODV 48 [0 ffffffff 7 800] [energy 29.997829 ei 0.000 es 0.000 et 0.001 er 0.002] ------- [7:255 -1:255 29 0] [0x2 2 1 [1 0] [0 4]] (REQUEST)
r 1.106839538 _10_ RTR  --- 0 AODV 48 [0 ffffffff 7 800] [energy 29.998053 ei 0.000 es 0.000 et 0.000 er 0.002] ------- [7:255 -1:255 29 0] [0x2 2 1 [1 0] [0 4]] (REQUEST)
r 1.106840143 _4_ RTR  --- 0 AODV 48 [0 ffffffff 7 800] [energy 29.998053 ei 0.000 es 0.000 et 0.000 er 0.002] ------- [7:255 -1:255 29 0] [0x2 2 1 [1 0] [0 4]] (REQUEST)
s 1.106885143 _4_ MAC  --- 0 AODV 106 [0 ffffffff 4 800] [energy 29.998053 ei 0.000 es 0.000 et 0.000 er 0.002] ------- [4:255 -1:255 29 0] [0x2 2 1 [1 0] [0 4]] (REQUEST)
N -t 1.106886 -n 1 -e 29.997536
N -t 1.106886 -n 10 -e 29.997718
N -t 1.106886 -n 2 -e 29.997718
N -t 1.106886 -n 11 -e 29.997718
N -t 1.106886 -n 8 -e 29.997718
N -t 1.106886 -n 9 -e 29.997718
N -t 1.106886 -n 12 -e 29.997718
N -t 1.106887 -n 13 -e 29.997718
N -t 1.106887 -n 5 -e 29.997494
N -t 1.106887 -n 6 -e 29.997494
N -t 1.106887 -n 3 -e 29.997494
N -t 1.106887 -n 0 -e 29.997400
N -t 1.106887 -n 7 -e 29.997494
r 1.107733919 _1_ MAC  --- 0 AODV 48 [0 ffffffff 4 800] [energy 29.997536 ei 0.000 es 0.000 et 0.000 er 0.002] ------- [4:255 -1:255 29 0] [0x2 2 1 [1 0] [0 4]] (REQUEST)
r 1.107734056 _10_ MAC  --- 0 AODV 48 [0 ffffffff 4 800] [energy 29.997718 ei 0.000 es 0.000 et 0.000 er 0.002] ------- [4:255 -1:255 29 0] [0x2 2 1 [1 0] [0 4]] (REQUEST)
r 1.107734189 _2_ MAC  --- 0 AODV 48 [0 ffffffff 4 800] [energy 29.997718 ei 0.000 es 0.000 et 0.000 er 0.002] ------- [4:255 -1:255 29 0] [0x2 2 1 [1 0] [0 4]] (REQUEST)
r 1.107734194 _11_ MAC  --- 0 AODV 48 [0 ffffffff 4 800] [energy 29.997718 ei 0.000 es 0.000 et 0.000 er 0.002] ------- [4:255 -1:255 29 0] [0x2 2 1 [1 0] [0 4]] (REQUEST)
r 1.107734287 _8_ MAC  --- 0 AODV 48 [0 ffffffff 4 800] [energy 29.997718 ei 0.000 es 0.000 et 0.000 er 0.002] ------- [4:255 -1:255 29 0] [0x2 2 1 [1 0] [0 4]] (REQUEST)
r 1.107734299 _9_ MAC  --- 0 AODV 48 [0 ffffffff 4 800] [energy 29.997718 ei 0.000 es 0.000 et 0.000 er 0.002] ------- [4:255 -1:255 29 0] [0x2 2 1 [1 0] [0 4]] (REQUEST)
r 1.107734422 _12_ MAC  --- 0 AODV 48 [0 ffffffff 4 800] [energy 29.997718 ei 0.000 es 0.000 et 0.000 er 0.002] ------- [4:255 -1:255 29 0] [0x2 2 1 [1 0] [0 4]] (REQUEST)