Sconfig 0.00000 tap: on snoop: rts? on errs? on
Sconfig 0.00000 salvage: on !bd replies? on
Sconfig 0.00000 grat error: on grat reply: on
Sconfig 0.00000 $reply for props: on ring 0 search: on
Sconfig 0.00000 using MOBICACHE
s 1.100000000 _0_ AGT  --- 0 cbr 500 [0 0 0 0] [energy 30.000000 ei 0.000 es 0.000 et 0.000 er 0.000] ------- [0:1 1:0 32 0] [0] 0 0
r 1.100000000 _0_ RTR  --- 0 cbr 500 [0 0 0 0] [energy 30.000000 ei 0.000 es 0.000 et 0.000 er 0.000] ------- [0:1 1:0 32 0] [0] 0 0
v 1.1000000000000001 eval {set sim_annotation {HELLO PACKETS TRANSMISSION in all node}}
s 1.107808908 _0_ RTR  --- 1 DSR 32 [0 0 0 0] [energy 30.000000 ei 0.000 es 0.000 et 0.000 er 0.000] ------- [0:255 1:255 32 0] 1 [1 1] [0 1 0 0->0] [0 0 0 0->0]
s 1.108443908 _0_ MAC  --- 1 DSR 90 [0 ffffffff 0 800] [energy 30.000000 ei 0.000 es 0.000 et 0.000 er 0.000] ------- [0:255 1:255 32 0] 1 [1 1] [0 1 0 0->0] [0 0 0 0->0]
N -t 1.108444 -n 9 -e 29.999716
N -t 1.108444 -n 12 -e 29.999716
N -t 1.108444 -n 15 -e 29.999716
N -t 1.108444 -n 14 -e 29.999716
N -t 1.108444 -n 13 -e 29.999716
N -t 1.108444 -n 6 -e 29.999716
N -t 1.108445 -n 2 -e 29.999716
N -t 1.108445 -n 7 -e 29.999716
N -t 1.108445 -n 4 -e 29.999716
N -t 1.108445 -n 1 -e 29.999716
N -t 1.108445 -n 5 -e 29.999716
N -t 1.108445 -n 11 -e 29.999716
N -t 1.108445 -n 8 -e 29.999716
N -t 1.108445 -n 10 -e 29.999716
N -t 1.108445 -n 3 -e 29.999716
r 1.109164187 _9_ MAC  --- 1 DSR 32 [0 ffffffff 0 800] [energy 29.999716 ei 0.000 es 0.000 et 0.000 er 0.000] ------- [0:255 1:255 32 0] 1 [1 1] [0 1 0 0->0] [0 0 0 0->0]
r 1.109164285 _12_ MAC  --- 1 DSR 32 [0 ffffffff 0 800] [energy 29.999716 ei 0.000 es 0.000 et 0.000 er 0.000] ------- [0:255 1:255 32 0] 1 [1 1] [0 1 0 0->0] [0 0 0 0->0]
r 1.109164406 _15_ MAC  --- 1 DSR 32 [0 ffffffff 0 800] [energy 29.999716 ei 0.000 es 0.000 et 0.000 er 0.000] ------- [0:255 1:255 32 0] 1 [1 1] [0 1 0 0->0] [0 0 0 0->0]
r 1.109164423 _14_ MAC  --- 1 DSR 32 [0 ffffffff 0 800] [energy 29.999716 ei 0.000 es 0.000 et 0.000 er 0.000] ------- [0:255 1:255 32 0] 1 [1 1] [0 1 0 0->0] [0 0 0 0->0]
r 1.109164451 _13_ MAC  --- 1 DSR 32 [0 ffffffff 0 800] [energy 29.999716 ei 0.000 es 0.000 et 0.000 er 0.000] ------- [0:255 1:255 32 0] 1 [1 1] [0 1 0 0->0] [0 0 0 0->0]
r 1.109164492 _6_ MAC  --- 1 DSR 32 [0 ffffffff 0 800] [energy 29.999716 ei 0.000 es 0.000 et 0.000 er 0.000] ------- [0:255 1:255 32 0] 1 [1 1] [0 1 0 0->0] [0 0 0 0->0]
r 1.109164557 _2_ MAC  --- 1 DSR 32 [0 ffffffff 0 800] [energy 29.999716 ei 0.000 es 0.000 et 0.000 er 0.000] ------- [0:255 1:255 32 0] 1 [1 1] [0 1 0 0->0] [0 0 0 0->0]
r 1.109164696 _7_ MAC  --- 1 DSR 32 [0 ffffffff 0 800] [energy 29.999716 ei 0.000 es 0.000 et 0.000 er 0.000] ------- [0:255 1:255 32 0] 1 [1 1] [0 1 0 0->0] [0 0 0 0->0]
r 1.109164721 _4_ MAC  --- 1 DSR 32 [0 ffffffff 0 800] [energy 29.999716 ei 0.000 es 0.000 et 0.000 er 0.000] ------- [0:255 1:255 32 0] 1 [1 1] [0 1 0 0->0] [0 0 0 0->0]
r 1.109164740 _1_ MAC  --- 1 DSR 32 [0 ffffffff 0 800] [energy 29.999716 ei 0.000 es 0.000 et 0.000 er 0.000] ------- [0:255 1:255 32 0] 1 [1 1] [0 1 0 0->0] [0 0 0 0->0]
r 1.109164746 _5_ MAC  --- 1 DSR 32 [0 ffffffff 0 800] [energy 29.999716 ei 0.000 es 0.000 et 0.000 er 0.000] ------- [0:255 1:255 32 0] 1 [1 1] [0 1 0 0->0] [0 0 0 0->0]
r 1.109164848 _11_ MAC  --- 1 DSR 32 [0 ffffffff 0 800] [energy 29.999716 ei 0.000 es 0.000 et 0.000 er 0.000] ------- [0:255 1:255 32 0] 1 [1 1] [0 1 0 0->0] [0 0 0 0->0]
r 1.109165021 _8_ MAC  --- 1 DSR 32 [0 ffffffff 0 800] [energy 29.999716 ei 0.000 es 0.000 et 0.000 er 0.000] ------- [0:255 1:255 32 0] 1 [1 1] [0 1 0 0->0] [0 0 0 0->0]
r 1.109165140 _10_ MAC  --- 1 DSR 32 [0 ffffffff 0 800] [energy 29.999716 ei 0.000 es 0.000 et 0.000 er 0.000] ------- [0:255 1:255 32 0] 1 [1 1] [0 1 0 0->0] [0 0 0 0->0]
r 1.109165334 _3_ MAC  --- 1 DSR 32 [0 ffffffff 0 800] [energy 29.999716 ei 0.000 es 0.000 et 0.000 er 0.000] ------- [0:255 1:255 32 0] 1 [1 1] [0 1 0 0->0] [0 0 0 0->0]
r 1.109189187 _9_ RTR  --- 1 DSR 32 [0 ffffffff 0 800] [energy 29.999716 ei 0.000 es 0.000 et 0.000 er 0.000] ------- [0:255 1:255 32 0] 1 [1 1] [0 1 0 0->0] [0 0 0 0->0]
r 1.109189285 _12_ RTR  --- 1 DSR 32 [0 ffffffff 0 800] [energy 29.999716 ei 0.000 es 0.000 et 0.000 er 0.000] ------- [0:255 1:255 32 0] 1 [1 1] [0 1 0 0->0] [0 0 0 0->0]
r 1.109189406 _15_ RTR  --- 1 DSR 32 [0 ffffffff 0 800] [energy 29.999716 ei 0.000 es 0.000 et 0.000 er 0.000] ------- [0:255 1:255 32 0] 1 [1 1] [0 1 0 0->0] [0 0 0 0->0]
r 1.109189423 _14_ RTR  --- 1 DSR 32 [0 ffffffff 0 800] [energy 29.999716 ei 0.000 es 0.000 et 0.000 er 0.000] ------- [0:255 1:255 32 0] 1 [1 1] [0 1 0 0->0] [0 0 0 0->0]
r 1.109189451 _13_ RTR  --- 1 DSR 32 [0 ffffffff 0 800] [energy 29.999716 ei 0.000 es 0.000 et 0.000 er 0.000] ------- [0:255 1:255 32 0] 1 [1 1] [0 1 0 0->0] [0 0 0 0->0]
r 1.109189492 _6_ RTR  --- 1 DSR 32 [0 ffffffff 0 800] [energy 29.999716 ei 0.000 es 0.000 et 0.000 er 0.000] ------- [0:255 1:255 32 0] 1 [1 1] [0 1 0 0->0] [0 0 0 0->0]
r 1.109189557 _2_ RTR  --- 1 DSR 32 [0 ffffffff 0 800] [energy 29.999716 ei 0.000 es 0.000 et 0.000 er 0.000] ------- [0:255 1:255 32 0] 1 [1 1] [0 1 0 0->0] [0 0 0 0->0]
r 1.109189696 _7_ RTR  --- 1 DSR 32 [0 ffffffff 0 800] [energy 29.999716 ei 0.000 es 0.000 et 0.000 er 0.000] ------- [0:255 1:255 32 0] 1 [1 1] [0 1 0 0->0] [0 0 0 0->0]
r 1.109189721 _4_ RTR  --- 1 DSR 32 [0 ffffffff 0 800] [energy 29.999716 ei 0.000 es 0.000 et 0.000 er 0.000] ------- [0:255 1:255 32 0] 1 [1 1] [0 1 0 0->0] [0 0 0 0->0]
r 1.109189740 _1_ RTR  --- 1 DSR 32 [0 ffffffff 0 800] [energy 29.999716 ei 0.000 es 0.000 et 0.000 er 0.000] ------- [0:255 1:255 32 0] 1 [1 1] [0 1 0 0->0] [0 0 0 0->0]
r 1.109189746 _5_ RTR  --- 1 DSR 32 [0 ffffffff 0 800] [energy 29.999716 ei 0.000 es 0.000 et 0.000 er 0.000] ------- [0:255 1:255 32 0] 1 [1 1] [0 1 0 0->0] [0 0 0 0->0]
r 1.109189848 _11_ RTR  --- 1 DSR 32 [0 ffffffff 0 800] [energy 29.999716 ei 0.000 es 0.000 et 0.000 er 0.000] ------- [0:255 1:255 32 0] 1 [1 1] [0 1 0 0->0] [0 0 0 0->0]
r 1.109190021 _8_ RTR  --- 1 DSR 32 [0 ffffffff 0 800] [energy 29.999716 ei 0.000 es 0.000 et 0.000 er 0.000] ------- [0:255 1:255 32 0] 1 [1 1] [0 1 0 0->0] [0 0 0 0->0]
r 1.109190140 _10_ RTR  --- 1 DSR 32 [0 ffffffff 0 800] [energy 29.999716 ei 0.000 es 0.000 et 0.000 er 0.000] ------- [0:255 1:255 32 0] 1 [1 1] [0 1 0 0->0] [0 0 0 0->0]
r 1.109190334 _3_ RTR  --- 1 DSR 32 [0 ffffffff 0 800] [energy 29.999716 ei 0.000 es 0.000 et 0.000 er 0.000] ------- [0:255 1:255 32 0] 1 [1 1] [0 1 0 0->0] [0 0 0 0->0]
s 1.115544372 _1_ RTR  --- 2 DSR 44 [0 0 0 0] [energy 29.999716 ei 0.000 es 0.000 et 0.000 er 0.000] ------- [1:255 0:255 254 0] 2 [0 1] [1 1 2 0->1] [0 0 0 0->0]
s 1.115839372 _1_ MAC  --- 0 ARP 86 [0 ffffffff 1 806] [energy 29.999716 ei 0.000 es 0.000 et 0.000 er 0.000] ------- [REQUEST 1/1 0/0]
N -t 1.115840 -n 5 -e 29.999444
N -t 1.115840 -n 7 -e 29.999444
N -t 1.115840 -n 15 -e 29.999444
N -t 1.115840 -n 4 -e 29.999444
N -t 1.115840 -n 10 -e 29.999444
N -t 1.115840 -n 3 -e 29.999444
N -t 1.115840 -n 11 -e 29.999444
N -t 1.115840 -n 12 -e 29.999444
N -t 1.115840 -n 0 -e 29.999253
N -t 1.115840 -n 8 -e 29.999444
N -t 1.115840 -n 14 -e 29.999444
N -t 1.115840 -n 13 -e 29.999444
N -t 1.115840 -n 9 -e 29.999444
N -t 1.115841 -n 6 -e 29.999444
N -t 1.115841 -n 2 -e 29.999444
r 1.116527501 _5_ MAC  --- 0 ARP 28 [0 ffffffff 1 806] [energy 29.999444 ei 0.000 es 0.000 et 0.000 er 0.001] ------- [REQUEST 1/1 0/0]
r 1.116527540 _7_ MAC  --- 0 ARP 28 [0 ffffffff 1 806] [energy 29.999444 ei 0.000 es 0.000 et 0.000 er 0.001] ------- [REQUEST 1/1 0/0]
r 1.116527712 _15_ MAC  --- 0 ARP 28 [0 ffffffff 1 806] [energy 29.999444 ei 0.000 es 0.000 et 0.000 er 0.001] ------- [REQUEST 1/1 0/0]
r 1.116527856 _4_ MAC  --- 0 ARP 28 [0 ffffffff 1 806] [energy 29.999444 ei 0.000 es 0.000 et 0.000 er 0.001] ------- [REQUEST 1/1 0/0]
r 1.116527918 _10_ MAC  --- 0 ARP 28 [0 ffffffff 1 806] [energy 29.999444 ei 0.000 es 0.000 et 0.000 er 0.001] ------- [REQUEST 1/1 0/0]
r 1.116527975 _3_ MAC  --- 0 ARP 28 [0 ffffffff 1 806] [energy 29.999444 ei 0.000 es 0.000 et 0.000 er 0.001] ------- [REQUEST 1/1 0/0]
r 1.116527990 _11_ MAC  --- 0 ARP 28 [0 ffffffff 1 806] [energy 29.999444 ei 0.000 es 0.000 et 0.000 er 0.001] ------- [REQUEST 1/1 0/0]
r 1.116528003 _12_ MAC  --- 0 ARP 28 [0 ffffffff 1 806] [energy 29.999444 ei 0.000 es 0.000 et 0.000 er 0.001] ------- [REQUEST 1/1 0/0]
r 1.116528204 _0_ MAC  --- 0 ARP 28 [0 ffffffff 1 806] [energy 29.999253 ei 0.000 es 0.000 et 0.000 er 0.000] ------- [REQUEST 1/1 0/0]
r 1.116528216 _8_ MAC  --- 0 ARP 28 [0 ffffffff 1 806] [energy 29.999444 ei 0.000 es 0.000 et 0.000 er 0.001] ------- [REQUEST 1/1 0/0]
r 1.116528349 _14_ MAC  --- 0 ARP 28 [0 ffffffff 1 806] [energy 29.999444 ei 0.000 es 0.000 et 0.000 er 0.001] ------- [REQUEST 1/1 0/0]
r 1.116528381 _13_ MAC  --- 0 ARP 28 [0 ffffffff 1 806] [energy 29.999444 ei 0.000 es 0.000 et 0.000 er 0.001] ------- [REQUEST 1/1 0/0]
r 1.116528473 _9_ MAC  --- 0 ARP 28 [0 ffffffff 1 806] [energy 29.999444 ei 0.000 es 0.000 et 0.000 er 0.001] ------- [REQUEST 1/1 0/0]
r 1.116528575 _6_ MAC  --- 0 ARP 28 [0 ffffffff 1 806] [energy 29.999444 ei 0.000 es 0.000 et 0.000 er 0.001] ------- [REQUEST 1/1 0/0]
r 1.116528839 _2_ MAC  --- 0 ARP 28 [0 ffffffff 1 806] [energy 29.999444 ei 0.000 es 0.000 et 0.000 er 0.001] ------- [REQUEST 1/1 0/0]
s 1.116983204 _0_ MAC  --- 0 RTS 44 [36b 1 0 0] [energy 29.999253 ei 0.000 es 0.000 et 0.000 er 0.000] 
N -t 1.116983 -n 9 -e 29.999305
N -t 1.116984 -n 12 -e 29.999305
N -t 1.116984 -n 15 -e 29.999305
N -t 1.116984 -n 14 -e 29.999305
N -t 1.116984 -n 13 -e 29.999305
N -t 1.116984 -n 6 -e 29.999305
N -t 1.116984 -n 2 -e 29.999305
N -t 1.116984 -n 7 -e 29.999305
N -t 1.116984 -n 4 -e 29.999305
N -t 1.116984 -n 1 -e 29.999122
N -t 1.116984 -n 5 -e 29.999305
N -t 1.116984 -n 11 -e 29.999305
N -t 1.116984 -n 8 -e 29.999305
N -t 1.116984 -n 10 -e 29.999305
N -t 1.116985 -n 3 -e 29.999305
r 1.117336036 _1_ MAC  --- 0 RTS 44 [36b 1 0 0] [energy 29.999122 ei 0.000 es 0.000 et 0.000 er 0.000] 
s 1.117346036 _1_ MAC  --- 0 CTS 38 [231 0 0 0] [energy 29.999122 ei 0.000 es 0.000 et 0.000 er 0.000] 
N -t 1.117346 -n 5 -e 29.999185
N -t 1.117346 -n 7 -e 29.999185
N -t 1.117346 -n 15 -e 29.999185
N -t 1.117347 -n 4 -e 29.999185
N -t 1.117347 -n 10 -e 29.999185
N -t 1.117347 -n 3 -e 29.999185
N -t 1.117347 -n 11 -e 29.999185
N -t 1.117347 -n 12 -e 29.999185
N -t 1.117347 -n 0 -e 29.998901
N -t 1.117347 -n 8 -e 29.999185
N -t 1.117347 -n 14 -e 29.999185
N -t 1.117347 -n 13 -e 29.999185
N -t 1.117347 -n 9 -e 29.999185
N -t 1.117347 -n 6 -e 29.999185
N -t 1.117348 -n 2 -e 29.999185
r 1.117650868 _0_ MAC  --- 0 CTS 38 [231 0 0 0] [energy 29.998901 ei 0.000 es 0.000 et 0.001 er 0.000] 
s 1.117660868 _0_ MAC  --- 0 ARP 86 [13a 1 0 806] [energy 29.998901 ei 0.000 es 0.000 et 0.001 er 0.000] ------- [REPLY 0/0 1/1]
N -t 1.117661 -n 9 -e 29.999091
N -t 1.117661 -n 12 -e 29.999091
N -t 1.117661 -n 15 -e 29.999091
N -t 1.117661 -n 14 -e 29.999091
N -t 1.117661 -n 13 -e 29.999091
N -t 1.117661 -n 6 -e 29.999091
N -t 1.117662 -n 2 -e 29.999091
N -t 1.117662 -n 7 -e 29.999091
N -t 1.117662 -n 4 -e 29.999091
N -t 1.117662 -n 1 -e 29.998828
N -t 1.117662 -n 5 -e 29.999091
N -t 1.117662 -n 11 -e 29.999091
N -t 1.117662 -n 8 -e 29.999091
N -t 1.117662 -n 10 -e 29.999091
N -t 1.117662 -n 3 -e 29.999091
r 1.117898791 _1_ MAC  --- 0 ARP 28 [13a 1 0 806] [energy 29.998828 ei 0.000 es 0.000 et 0.001 er 0.001] ------- [REPLY 0/0 1/1]
s 1.117908791 _1_ MAC  --- 0 ACK 38 [0 0 0 0] [energy 29.998828 ei 0.000 es 0.000 et 0.001 er 0.001] 
N -t 1.117909 -n 5 -e 29.998971
N -t 1.117909 -n 7 -e 29.998971
N -t 1.117909 -n 15 -e 29.998971
N -t 1.117909 -n 4 -e 29.998971
N -t 1.117909 -n 10 -e 29.998971
N -t 1.117909 -n 3 -e 29.998971
N -t 1.117909 -n 11 -e 29.998971
N -t 1.117909 -n 12 -e 29.998971
N -t 1.117910 -n 0 -e 29.998624
N -t 1.117910 -n 8 -e 29.998971
N -t 1.117910 -n 14 -e 29.998971
N -t 1.117910 -n 13 -e 29.998971
N -t 1.117910 -n 9 -e 29.998971
N -t 1.117910 -n 6 -e 29.998971
N -t 1.117910 -n 2 -e 29.998971
r 1.118213623 _0_ MAC  --- 0 ACK 38 [0 0 0 0] [energy 29.998624 ei 0.000 es 0.000 et 0.001 er 0.001] 
s 1.118422791 _1_ MAC  --- 0 RTS 44 [377 0 1 0] [energy 29.998628 ei 0.000 es 0.000 et 0.001 er 0.001] 
N -t 1.118423 -n 5 -e 29.998832
N -t 1.118423 -n 7 -e 29.998832
N -t 1.118423 -n 15 -e 29.998832
N -t 1.118423 -n 4 -e 29.998832
N -t 1.118423 -n 10 -e 29.998832
N -t 1.118423 -n 3 -e 29.998832
N -t 1.118423 -n 11 -e 29.998832
N -t 1.118423 -n 12 -e 29.998832
N -t 1.118424 -n 0 -e 29.998485
N -t 1.118424 -n 8 -e 29.998832
N -t 1.118424 -n 14 -e 29.998832
N -t 1.118424 -n 13 -e 29.998832
N -t 1.118424 -n 9 -e 29.998832
N -t 1.118424 -n 6 -e 29.998832
N -t 1.118424 -n 2 -e 29.998832
r 1.118775623 _0_ MAC  --- 0 RTS 44 [377 0 1 0] [energy 29.998485 ei 0.000 es 0.000 et 0.001 er 0.001] 
s 1.118785623 _0_ MAC  --- 0 CTS 38 [23d 1 0 0] [energy 29.998485 ei 0.000 es 0.000 et 0.001 er 0.001] 
N -t 1.118786 -n 9 -e 29.998712
N -t 1.118786 -n 12 -e 29.998712
N -t 1.118786 -n 15 -e 29.998712
N -t 1.118786 -n 14 -e 29.998712
N -t 1.118786 -n 13 -e 29.998712
N -t 1.118786 -n 6 -e 29.998712
N -t 1.118786 -n 2 -e 29.998712
N -t 1.118786 -n 7 -e 29.998712
N -t 1.118786 -n 4 -e 29.998712
N -t 1.118786 -n 1 -e 29.998275
N -t 1.118786 -n 5 -e 29.998712
N -t 1.118787 -n 11 -e 29.998712
N -t 1.118787 -n 8 -e 29.998712
N -t 1.118787 -n 10 -e 29.998712
N -t 1.118787 -n 3 -e 29.998712
r 1.119090455 _1_ MAC  --- 0 CTS 38 [23d 1 0 0] [energy 29.998275 ei 0.000 es 0.000 et 0.001 er 0.001] 
s 1.119100455 _1_ MAC  --- 2 DSR 102 [13a 0 1 800] [energy 29.998275 ei 0.000 es 0.000 et 0.001 er 0.001] ------- [1:255 0:255 254 0] 2 [0 1] [1 1 2 0->1] [0 0 0 0->0]
N -t 1.119101 -n 5 -e 29.998614
N -t 1.119101 -n 7 -e 29.998614
N -t 1.119101 -n 15 -e 29.998614
N -t 1.119101 -n 4 -e 29.998614
N -t 1.119101 -n 10 -e 29.998614
N -t 1.119101 -n 3 -e 29.998614
N -t 1.119101 -n 11 -e 29.998614
N -t 1.119101 -n 12 -e 29.998614
N -t 1.119101 -n 0 -e 29.998186
N -t 1.119101 -n 8 -e 29.998614
N -t 1.119101 -n 14 -e 29.998614
N -t 1.119101 -n 13 -e 29.998614
N -t 1.119102 -n 9 -e 29.998614
N -t 1.119102 -n 6 -e 29.998614
N -t 1.119102 -n 2 -e 29.998614
r 1.119350014 _0_ MAC  --- 2 DSR 44 [13a 0 1 800] [energy 29.998186 ei 0.000 es 0.000 et 0.001 er 0.001] ------- [1:255 0:255 254 0] 2 [0 1] [1 1 2 0->1] [0 0 0 0->0]
s 1.119360014 _0_ MAC  --- 0 ACK 38 [0 1 0 0] [energy 29.998186 ei 0.000 es 0.000 et 0.001 er 0.001] 
N -t 1.119360 -n 9 -e 29.998494
N -t 1.119360 -n 12 -e 29.998494
N -t 1.119361 -n 15 -e 29.998494
N -t 1.119361 -n 14 -e 29.998494
N -t 1.119361 -n 13 -e 29.998494
N -t 1.119361 -n 6 -e 29.998494
N -t 1.119361 -n 2 -e 29.998494
N -t 1.119361 -n 7 -e 29.998494
N -t 1.119361 -n 4 -e 29.998494
N -t 1.119361 -n 1 -e 29.997991
N -t 1.119361 -n 5 -e 29.998494
N -t 1.119361 -n 11 -e 29.998494
N -t 1.119361 -n 8 -e 29.998494
N -t 1.119361 -n 10 -e 29.998494
N -t 1.119361 -n 3 -e 29.998494
r 1.119375014 _0_ RTR  --- 2 DSR 44 [13a 0 1 800] [energy 29.997986 ei 0.000 es 0.000 et 0.001 er 0.001] ------- [1:255 0:255 254 0] 2 [0 1] [1 1 2 0->1] [0 0 0 0->0]
SFESTs 1.119375014 _0_ 0 [0 -> 1] 1(1) to 1 [0 |1 ]
s 1.119375014 _0_ RTR  --- 0 cbr 536 [0 0 0 0] [energy 29.997986 ei 0.000 es 0.000 et 0.001 er 0.001] ------- [0:1 1:0 32 1] [0] 0 0
r 1.119664846 _1_ MAC  --- 0 ACK 38 [0 1 0 0] [energy 29.997991 ei 0.000 es 0.000 et 0.001 er 0.001] 
s 1.119734014 _0_ MAC  --- 0 RTS 44 [4dd 1 0 0] [energy 29.997986 ei 0.000 es 0.000 et 0.001 er 0.001] 
N -t 1.119734 -n 9 -e 29.998355
N -t 1.119734 -n 12 -e 29.998355
N -t 1.119735 -n 15 -e 29.998355
N -t 1.119735 -n 14 -e 29.998355
N -t 1.119735 -n 13 -e 29.998355
N -t 1.119735 -n 6 -e 29.998355
N -t 1.119735 -n 2 -e 29.998355
N -t 1.119735 -n 7 -e 29.998355
N -t 1.119735 -n 4 -e 29.998355
N -t 1.119735 -n 1 -e 29.997852
N -t 1.119735 -n 5 -e 29.998355
N -t 1.119735 -n 11 -e 29.998355
N -t 1.119735 -n 8 -e 29.998355
N -t 1.119735 -n 10 -e 29.998355
N -t 1.119735 -n 3 -e 29.998355
r 1.120086846 _1_ MAC  --- 0 RTS 44 [4dd 1 0 0] [energy 29.997852 ei 0.000 es 0.000 et 0.001 er 0.001] 
s 1.120096846 _1_ MAC  --- 0 CTS 38 [3a3 0 0 0] [energy 29.997852 ei 0.000 es 0.000 et 0.001 er 0.001] 
N -t 1.120097 -n 5 -e 29.998234
N -t 1.120097 -n 7 -e 29.998234
N -t 1.120097 -n 15 -e 29.998234
N -t 1.120097 -n 4 -e 29.998234
N -t 1.120097 -n 10 -e 29.998234
N -t 1.120097 -n 3 -e 29.998234
N -t 1.120097 -n 11 -e 29.998234
N -t 1.120097 -n 12 -e 29.998234
N -t 1.120098 -n 0 -e 29.997633
N -t 1.120098 -n 8 -e 29.998234
N -t 1.120098 -n 14 -e 29.998234
N -t 1.120098 -n 13 -e 29.998234
N -t 1.120098 -n 9 -e 29.998234
N -t 1.120098 -n 6 -e 29.998234
N -t 1.120098 -n 2 -e 29.998234
r 1.120401678 _0_ MAC  --- 0 CTS 38 [3a3 0 0 0] [energy 29.997633 ei 0.000 es 0.000 et 0.001 er 0.001] 
s 1.120411678 _0_ MAC  --- 0 cbr 594 [13a 1 0 800] [energy 29.997633 ei 0.000 es 0.000 et 0.001 er 0.001] ------- [0:1 1:0 32 1] [0] 0 0
N -t 1.120412 -n 9 -e 29.997995
N -t 1.120412 -n 12 -e 29.997995
N -t 1.120412 -n 15 -e 29.997995
N -t 1.120412 -n 14 -e 29.997995
N -t 1.120412 -n 13 -e 29.997995
N -t 1.120412 -n 6 -e 29.997995
N -t 1.120412 -n 2 -e 29.997995
N -t 1.120412 -n 7 -e 29.997995
N -t 1.120412 -n 4 -e 29.997995
N -t 1.120413 -n 1 -e 29.997412
N -t 1.120413 -n 5 -e 29.997995
N -t 1.120413 -n 11 -e 29.997995
N -t 1.120413 -n 8 -e 29.997995
N -t 1.120413 -n 10 -e 29.997995
N -t 1.120413 -n 3 -e 29.997995
r 1.121019055 _1_ MAC  --- 0 cbr 536 [13a 1 0 800] [energy 29.997412 ei 0.000 es 0.000 et 0.001 er 0.001] ------- [0:1 1:0 32 1] [0] 1 0
s 1.121029055 _1_ MAC  --- 0 ACK 38 [0 0 0 0] [energy 29.997412 ei 0.000 es 0.000 et 0.001 er 0.001] 
N -t 1.121029 -n 5 -e 29.997875
N -t 1.121029 -n 7 -e 29.997875
N -t 1.121029 -n 15 -e 29.997875
N -t 1.121030 -n 4 -e 29.997875
N -t 1.121030 -n 10 -e 29.997875
N -t 1.121030 -n 3 -e 29.997875
N -t 1.121030 -n 11 -e 29.997875
N -t 1.121030 -n 12 -e 29.997875
N -t 1.121030 -n 0 -e 29.997113
N -t 1.121030 -n 8 -e 29.997875
N -t 1.121030 -n 14 -e 29.997875
N -t 1.121030 -n 13 -e 29.997875
N -t 1.121030 -n 9 -e 29.997875
N -t 1.121030 -n 6 -e 29.997875
N -t 1.121031 -n 2 -e 29.997875
r 1.121044055 _1_ RTR  --- 0 cbr 536 [13a 1 0 800] [energy 29.997211 ei 0.000 es 0.000 et 0.002 er 0.001] ------- [0:1 1:0 32 1] [0] 1 0
r 1.121044055 _1_ AGT  --- 0 cbr 500 [13a 1 0 800] [energy 29.997211 ei 0.000 es 0.000 et 0.002 er 0.001] ------- [0:1 1:0 32 1] [0] 1 0
r 1.121333887 _0_ MAC  --- 0 ACK 38 [0 0 0 0] [energy 29.997113 ei 0.000 es 0.000 et 0.002 er 0.001] 
s 1.400000000 _1_ AGT  --- 4 cbr 500 [0 0 0 0] [energy 29.997211 ei 0.000 es 0.000 et 0.002 er 0.001] ------- [1:1 2:0 32 0] [0] 0 0
r 1.400000000 _1_ RTR  --- 4 cbr 500 [0 0 0 0] [energy 29.997211 ei 0.000 es 0.000 et 0.002 er 0.001] ------- [1:1 2:0 32 0] [0] 0 0
s 1.402421179 _1_ RTR  --- 5 DSR 32 [0 0 0 0] [energy 29.997211 ei 0.000 es 0.000 et 0.002 er 0.001] ------- [1:255 2:255 32 0] 1 [1 1] [0 1 0 0->0] [0 0 0 0->0]
s 1.403016179 _1_ MAC  --- 5 DSR 90 [0 ffffffff 1 800] [energy 29.997211 ei 0.000 es 0.000 et 0.002 er 0.001] ------- [1:255 2:255 32 0] 1 [1 1] [0 1 0 0->0] [0 0 0 0->0]
N -t 1.403016 -n 5 -e 29.997590
N -t 1.403016 -n 7 -e 29.997590
N -t 1.403017 -n 15 -e 29.997590
N -t 1.403017 -n 4 -e 29.997590
N -t 1.403017 -n 10 -e 29.997590
N -t 1.403017 -n 3 -e 29.997590
N -t 1.403017 -n 11 -e 29.997590
N -t 1.403017 -n 12 -e 29.997590
N -t 1.403017 -n 0 -e 29.996828
N -t 1.403017 -n 8 -e 29.997590
N -t 1.403017 -n 14 -e 29.997590
N -t 1.403017 -n 13 -e 29.997590
N -t 1.403017 -n 9 -e 29.997590
N -t 1.403017 -n 6 -e 29.997590
N -t 1.403018 -n 2 -e 29.997590
r 1.403736308 _5_ MAC  --- 5 DSR 32 [0 ffffffff 1 800] [energy 29.997590 ei 0.000 es 0.000 et 0.000 er 0.002] ------- [1:255 2:255 32 0] 1 [1 1] [0 1 0 0->0] [0 0 0 0->0]
r 1.403736346 _7_ MAC  --- 5 DSR 32 [0 ffffffff 1 800] [energy 29.997590 ei 0.000 es 0.000 et 0.000 er 0.002] ------- [1:255 2:255 32 0] 1 [1 1] [0 1 0 0->0] [0 0 0 0->0]
r 1.403736518 _15_ MAC  --- 5 DSR 32 [0 ffffffff 1 800] [energy 29.997590 ei 0.000 es 0.000 et 0.000 er 0.002] ------- [1:255 2:255 32 0] 1 [1 1] [0 1 0 0->0] [0 0 0 0->0]
r 1.403736662 _4_ MAC  --- 5 DSR 32 [0 ffffffff 1 800] [energy 29.997590 ei 0.000 es 0.000 et 0.000 er 0.002] ------- [1:255 2:255 32 0] 1 [1 1] [0 1 0 0->0] [0 0 0 0->0]
r 1.403736725 _10_ MAC  --- 5 DSR 32 [0 ffffffff 1 800] [energy 29.997590 ei 0.000 es 0.000 et 0.000 er 0.002] ------- [1:255 2:255 32 0] 1 [1 1] [0 1 0 0->0] [0 0 0 0->0]
r 1.403736781 _3_ MAC  --- 5 DSR 32 [0 ffffffff 1 800] [energy 29.997590 ei 0.000 es 0.000 et 0.000 er 0.002] ------- [1:255 2:255 32 0] 1 [1 1] [0 1 0 0->0] [0 0 0 0->0]
r 1.403736797 _11_ MAC  --- 5 DSR 32 [0 ffffffff 1 800] [energy 29.997590 ei 0.000 es 0.000 et 0.000 er 0.002] ------- [1:255 2:255 32 0] 1 [1 1] [0 1 0 0->0] [0 0 0 0->0]
r 1.403736809 _12_ MAC  --- 5 DSR 32 [0 ffffffff 1 800] [energy 29.997590 ei 0.000 es 0.000 et 0.000 er 0.002] ------- [1:255 2:255 32 0] 1 [1 1] [0 1 0 0->0] [0 0 0 0->0]
r 1.403737011 _0_ MAC  --- 5 DSR 32 [0 ffffffff 1 800] [energy 29.996828 ei 0.000 es 0.000 et 0.002 er 0.001] ------- [1:255 2:255 32 0] 1 [1 1] [0 1 0 0->0] [0 0 0 0->0]
r 1.403737022 _8_ MAC  --- 5 DSR 32 [0 ffffffff 1 800] [energy 29.997590 ei 0.000 es 0.000 et 0.000 er 0.002] ------- [1:255 2:255 32 0] 1 [1 1] [0 1 0 0->0] [0 0 0 0->0]
r 1.403737156 _14_ MAC  --- 5 DSR 32 [0 ffffffff 1 800] [energy 29.997590 ei 0.000 es 0.000 et 0.000 er 0.002] ------- [1:255 2:255 32 0] 1 [1 1] [0 1 0 0->0] [0 0 0 0->0]
r 1.403737188 _13_ MAC  --- 5 DSR 32 [0 ffffffff 1 800] [energy 29.997590 ei 0.000 es 0.000 et 0.000 er 0.002] ------- [1:255 2:255 32 0] 1 [1 1] [0 1 0 0->0] [0 0 0 0->0]
r 1.403737279 _9_ MAC  --- 5 DSR 32 [0 ffffffff 1 800] [energy 29.997590 ei 0.000 es 0.000 et 0.000 er 0.002] ------- [1:255 2:255 32 0] 1 [1 1] [0 1 0 0->0] [0 0 0 0->0]
r 1.403737381 _6_ MAC  --- 5 DSR 32 [0 ffffffff 1 800] [energy 29.997590 ei 0.000 es 0.000 et 0.000 er 0.002] ------- [1:255 2:255 32 0] 1 [1 1] [0 1 0 0->0] [0 0 0 0->0]
r 1.403737646 _2_ MAC  --- 5 DSR 32 [0 ffffffff 1 800] [energy 29.997590 ei 0.000 es 0.000 et 0.000 er 0.002] ------- [1:255 2:255 32 0] 1 [1 1] [0 1 0 0->0] [0 0 0 0->0]
r 1.403761308 _5_ RTR  --- 5 DSR 32 [0 ffffffff 1 800] [energy 29.997590 ei 0.000 es 0.000 et 0.000 er 0.002] ------- [1:255 2:255 32 0] 1 [1 1] [0 1 0 0->0] [0 0 0 0->0]
r 1.403761346 _7_ RTR  --- 5 DSR 32 [0 ffffffff 1 800] [energy 29.997590 ei 0.000 es 0.000 et 0.000 er 0.002] ------- [1:255 2:255 32 0] 1 [1 1] [0 1 0 0->0] [0 0 0 0->0]
r 1.403761518 _15_ RTR  --- 5 DSR 32 [0 ffffffff 1 800] [energy 29.997590 ei 0.000 es 0.000 et 0.000 er 0.002] ------- [1:255 2:255 32 0] 1 [1 1] [0 1 0 0->0] [0 0 0 0->0]
r 1.403761662 _4_ RTR  --- 5 DSR 32 [0 ffffffff 1 800] [energy 29.997590 ei 0.000 es 0.000 et 0.000 er 0.002] ------- [1:255 2:255 32 0] 1 [1 1] [0 1 0 0->0] [0 0 0 0->0]
r 1.403761725 _10_ RTR  --- 5 DSR 32 [0 ffffffff 1 800] [energy 29.997590 ei 0.000 es 0.000 et 0.000 er 0.002] ------- [1:255 2:255 32 0] 1 [1 1] [0 1 0 0->0] [0 0 0 0->0]
r 1.403761781 _3_ RTR  --- 5 DSR 32 [0 ffffffff 1 800] [energy 29.997590 ei 0.000 es 0.000 et 0.000 er 0.002] ------- [1:255 2:255 32 0] 1 [1 1] [0 1 0 0->0] [0 0 0 0->0]
r 1.403761797 _11_ RTR  --- 5 DSR 32 [0 ffffffff 1 800] [energy 29.997590 ei 0.000 es 0.000 et 0.000 er 0.002] ------- [1:255 2:255 32 0] 1 [1 1] [0 1 0 0->0] [0 0 0 0->0]
r 1.403761809 _12_ RTR  --- 5 DSR 32 [0 ffffffff 1 800] [energy 29.997590 ei 0.000 es 0.000 et 0.000 er 0.002] ------- [1:255 2:255 32 0] 1 [1 1] [0 1 0 0->0] [0 0 0 0->0]
r 1.403762011 _0_ RTR  --- 5 DSR 32 [0 ffffffff 1 800] [energy 29.996828 ei 0.000 es 0.000 et 0.002 er 0.001] ------- [1:255 2:255 32 0] 1 [1 1] [0 1 0 0->0] [0 0 0 0->0]
r 1.403762022 _8_ RTR  --- 5 DSR 32 [0 ffffffff 1 800] [energy 29.997590 ei 0.000 es 0.000 et 0.000 er 0.002] ------- [1:255 2:255 32 0] 1 [1 1] [0 1 0 0->0] [0 0 0 0->0]
r 1.403762156 _14_ RTR  --- 5 DSR 32 [0 ffffffff 1 800] [energy 29.997590 ei 0.000 es 0.000 et 0.000 er 0.002] ------- [1:255 2:255 32 0] 1 [1 1] [0 1 0 0->0] [0 0 0 0->0]
r 1.403762188 _13_ RTR  --- 5 DSR 32 [0 ffffffff 1 800] [energy 29.997590 ei 0.000 es 0.000 et 0.000 er 0.002] ------- [1:255 2:255 32 0] 1 [1 1] [0 1 0 0->0] [0 0 0 0->0]
r 1.403762279 _9_ RTR  --- 5 DSR 32 [0 ffffffff 1 800] [energy 29.997590 ei 0.000 es 0.000 et 0.000 er 0.002] ------- [1:255 2:255 32 0] 1 [1 1] [0 1 0 0->0] [0 0 0 0->0]
r 1.403762381 _6_ RTR  --- 5 DSR 32 [0 ffffffff 1 800] [energy 29.997590 ei 0.000 es 0.000 et 0.000 er 0.002] ------- [1:255 2:255 32 0] 1 [1 1] [0 1 0 0->0] [0 0 0 0->0]
r 1.403762646 _2_ RTR  --- 5 DSR 32 [0 ffffffff 1 800] [energy 29.997590 ei 0.000 es 0.000 et 0.000 er 0.002] ------- [1:255 2:255 32 0] 1 [1 1] [0 1 0 0->0] [0 0 0 0->0]
s 1.405973537 _2_ RTR  --- 6 DSR 44 [0 0 0 0] [energy 29.997590 ei 0.000 es 0.000 et 0.000 er 0.002] ------- [2:255 1:255 254 1] 2 [0 1] [1 1 2 1->2] [0 0 0 0->0]
s 1.406348537 _2_ MAC  --- 0 RTS 44 [377 1 2 0] [energy 29.997590 ei 0.000 es 0.000 et 0.000 er 0.002] 
N -t 1.406349 -n 9 -e 29.997451
N -t 1.406349 -n 6 -e 29.997451
N -t 1.406349 -n 0 -e 29.996689
N -t 1.406349 -n 13 -e 29.997451
N -t 1.406349 -n 14 -e 29.997451
N -t 1.406349 -n 12 -e 29.997451
N -t 1.406350 -n 15 -e 29.997451
N -t 1.406350 -n 4 -e 29.997451
N -t 1.406350 -n 7 -e 29.997451
N -t 1.406350 -n 5 -e 29.997451
N -t 1.406350 -n 1 -e 29.996597
N -t 1.406350 -n 8 -e 29.997451
N -t 1.406350 -n 11 -e 29.997451
N -t 1.406350 -n 10 -e 29.997451
N -t 1.406351 -n 3 -e 29.997451
r 1.406702004 _1_ MAC  --- 0 RTS 44 [377 1 2 0] [energy 29.996597 ei 0.000 es 0.000 et 0.002 er 0.001] 
s 1.406712004 _1_ MAC  --- 0 CTS 38 [23d 2 0 0] [energy 29.996597 ei 0.000 es 0.000 et 0.002 er 0.001] 
N -t 1.406712 -n 5 -e 29.997331
N -t 1.406712 -n 7 -e 29.997331
N -t 1.406712 -n 15 -e 29.997331
N -t 1.406712 -n 4 -e 29.997331
N -t 1.406713 -n 10 -e 29.997331
N -t 1.406713 -n 3 -e 29.997331
N -t 1.406713 -n 11 -e 29.997331
N -t 1.406713 -n 12 -e 29.997331
N -t 1.406713 -n 0 -e 29.996569
N -t 1.406713 -n 8 -e 29.997331
N -t 1.406713 -n 14 -e 29.997331
N -t 1.406713 -n 13 -e 29.997331
N -t 1.406713 -n 9 -e 29.997331
N -t 1.406713 -n 6 -e 29.997331
N -t 1.406713 -n 2 -e 29.997238
r 1.407017471 _2_ MAC  --- 0 CTS 38 [23d 2 0 0] [energy 29.997238 ei 0.000 es 0.000 et 0.000 er 0.003] 
s 1.407027471 _2_ MAC  --- 6 DSR 102 [13a 1 2 800] [energy 29.997238 ei 0.000 es 0.000 et 0.000 er 0.003] ------- [2:255 1:255 254 1] 2 [0 1] [1 1 2 1->2] [0 0 0 0->0]
N -t 1.407028 -n 9 -e 29.997233
N -t 1.407028 -n 6 -e 29.997233
N -t 1.407028 -n 0 -e 29.996471
N -t 1.407028 -n 13 -e 29.997233
N -t 1.407028 -n 14 -e 29.997233
N -t 1.407028 -n 12 -e 29.997233
N -t 1.407029 -n 15 -e 29.997233
N -t 1.407029 -n 4 -e 29.997233
N -t 1.407029 -n 7 -e 29.997233
N -t 1.407029 -n 5 -e 29.997233
N -t 1.407029 -n 1 -e 29.996298
N -t 1.407029 -n 8 -e 29.997233
N -t 1.407029 -n 11 -e 29.997233
N -t 1.407029 -n 10 -e 29.997233
N -t 1.407030 -n 3 -e 29.997233
r 1.407277665 _1_ MAC  --- 6 DSR 44 [13a 1 2 800] [energy 29.996298 ei 0.000 es 0.000 et 0.002 er 0.001] ------- [2:255 1:255 254 1] 2 [0 1] [1 1 2 1->2] [0 0 0 0->0]
s 1.407287665 _1_ MAC  --- 0 ACK 38 [0 2 0 0] [energy 29.996298 ei 0.000 es 0.000 et 0.002 er 0.001] 
N -t 1.407288 -n 5 -e 29.997113
N -t 1.407288 -n 7 -e 29.997113
N -t 1.407288 -n 15 -e 29.997113
N -t 1.407288 -n 4 -e 29.997113
N -t 1.407288 -n 10 -e 29.997113
N -t 1.407288 -n 3 -e 29.997113
N -t 1.407288 -n 11 -e 29.997113
N -t 1.407288 -n 12 -e 29.997113
N -t 1.407288 -n 0 -e 29.996351
N -t 1.407289 -n 8 -e 29.997113
N -t 1.407289 -n 14 -e 29.997113
N -t 1.407289 -n 13 -e 29.997113
N -t 1.407289 -n 9 -e 29.997113
N -t 1.407289 -n 6 -e 29.997113
N -t 1.407289 -n 2 -e 29.996954
r 1.407302665 _1_ RTR  --- 6 DSR 44 [13a 1 2 800] [energy 29.996097 ei 0.000 es 0.000 et 0.003 er 0.001] ------- [2:255 1:255 254 1] 2 [0 1] [1 1 2 1->2] [0 0 0 0->0]
SFESTs 1.407302665 _1_ 4 [1 -> 2] 1(1) to 2 [1 |2 ]
s 1.407302665 _1_ RTR  --- 4 cbr 536 [0 0 0 0] [energy 29.996097 ei 0.000 es 0.000 et 0.003 er 0.001] ------- [1:1 2:0 32 2] [0] 0 0
r 1.407593133 _2_ MAC  --- 0 ACK 38 [0 2 0 0] [energy 29.996954 ei 0.000 es 0.000 et 0.000 er 0.003] 
s 1.407741665 _1_ MAC  --- 0 ARP 86 [0 ffffffff 1 806] [energy 29.996097 ei 0.000 es 0.000 et 0.003 er 0.001] ------- [REQUEST 1/1 0/2]
N -t 1.407742 -n 5 -e 29.996841
N -t 1.407742 -n 7 -e 29.996841
N -t 1.407742 -n 15 -e 29.996841
N -t 1.407742 -n 4 -e 29.996841
N -t 1.407742 -n 10 -e 29.996841
N -t 1.407742 -n 3 -e 29.996841
N -t 1.407742 -n 11 -e 29.996841
N -t 1.407742 -n 12 -e 29.996841
N -t 1.407742 -n 0 -e 29.996079
N -t 1.407743 -n 8 -e 29.996841
N -t 1.407743 -n 14 -e 29.996841
N -t 1.407743 -n 13 -e 29.996841
N -t 1.407743 -n 9 -e 29.996841
N -t 1.407743 -n 6 -e 29.996841
N -t 1.407743 -n 2 -e 29.996682
r 1.408429795 _5_ MAC  --- 0 ARP 28 [0 ffffffff 1 806] [energy 29.996841 ei 0.000 es 0.000 et 0.000 er 0.003] ------- [REQUEST 1/1 0/2]
r 1.408429833 _7_ MAC  --- 0 ARP 28 [0 ffffffff 1 806] [energy 29.996841 ei 0.000 es 0.000 et 0.000 er 0.003] ------- [REQUEST 1/1 0/2]
r 1.408430005 _15_ MAC  --- 0 ARP 28 [0 ffffffff 1 806] [energy 29.996841 ei 0.000 es 0.000 et 0.000 er 0.003] ------- [REQUEST 1/1 0/2]
r 1.408430149 _4_ MAC  --- 0 ARP 28 [0 ffffffff 1 806] [energy 29.996841 ei 0.000 es 0.000 et 0.000 er 0.003] ------- [REQUEST 1/1 0/2]
r 1.408430211 _10_ MAC  --- 0 ARP 28 [0 ffffffff 1 806] [energy 29.996841 ei 0.000 es 0.000 et 0.000 er 0.003] ------- [REQUEST 1/1 0/2]
r 1.408430268 _3_ MAC  --- 0 ARP 28 [0 ffffffff 1 806] [energy 29.996841 ei 0.000 es 0.000 et 0.000 er 0.003] ------- [REQUEST 1/1 0/2]
r 1.408430284 _11_ MAC  --- 0 ARP 28 [0 ffffffff 1 806] [energy 29.996841 ei 0.000 es 0.000 et 0.000 er 0.003] ------- [REQUEST 1/1 0/2]
r 1.408430296 _12_ MAC  --- 0 ARP 28 [0 ffffffff 1 806] [energy 29.996841 ei 0.000 es 0.000 et 0.000 er 0.003] ------- [REQUEST 1/1 0/2]