n -t * -s 15  -x 341.161 -y 366.31 -Z 0 -z 300  -v circle -c green
n -t * -s 0  -x 452.64869306825506 -y 266.58439816282333 -Z 0 -z 30  -v circle -c green
n -t * -s 1  -x 283.97992257214145 -y 450.55866998180682 -Z 0 -z 30  -v circle -c green
n -t * -s 2  -x 539.56638422774449 -y 92.219715701518439 -Z 0 -z 30  -v circle -c green
n -t * -s 3  -x 136.76179542055436 -y 555.4956332573181 -Z 0 -z 30  -v circle -c green
n -t * -s 4  -x 215.10815574559763 -y 322.77361625934651 -Z 0 -z 30  -v circle -c green
n -t * -s 5  -x 256.16847083725429 -y 423.48936173296039 -Z 0 -z 30  -v circle -c green
n -t * -s 6  -x 385.70264586513053 -y 104.36905524896879 -Z 0 -z 30  -v circle -c green
n -t * -s 7  -x 330.7115694185307 -y 469.3472172456548 -Z 0 -z 30  -v circle -c green
n -t * -s 8  -x 118.68024771971639 -y 258.92342527346847 -Z 0 -z 30  -v circle -c green
n -t * -s 9  -x 526.00857118424426 -y 226.05589359349378 -Z 0 -z 30  -v circle -c green
n -t * -s 10  -x 121.40362585028802 -y 430.73966579080547 -Z 0 -z 30  -v circle -c green
n -t * -s 11  -x 441.56294606698816 -y 548.43454786969096 -Z 0 -z 30  -v circle -c green
n -t * -s 12  -x 339.44604589578046 -y 269.69337038215872 -Z 0 -z 30  -v circle -c green
n -t * -s 13  -x 336.47601294167157 -y 152.34951067359631 -Z 0 -z 30  -v circle -c green
n -t * -s 14  -x 338.22589113294418 -y 162.5522713933849 -Z 0 -z 30  -v circle -c green
V -t * -v 1.0a5 -a 0
W -t * -x 704 -y 536
A -t * -n 1 -p 0 -o 0x7fffffff -c 30 -a 1
A -t * -h 1 -m 1073741823 -s 0
n -t 0.10000000000000001 -s 0 -S DLABEL -l "Node0" -L ""
n -t 0.1 -s 0 -S COLOR -c blue -o black -i blue -I black
n -t 0.10000000000000001 -s 1 -S DLABEL -l "Node1" -L ""
n -t 0.1 -s 1 -S COLOR -c blue -o black -i blue -I black
n -t 0.10000000000000001 -s 2 -S DLABEL -l "Node2" -L ""
n -t 0.1 -s 2 -S COLOR -c blue -o black -i blue -I black
n -t 0.10000000000000001 -s 3 -S DLABEL -l "Node3" -L ""
n -t 0.1 -s 3 -S COLOR -c blue -o black -i blue -I black
n -t 0.10000000000000001 -s 4 -S DLABEL -l "Node4" -L ""
n -t 0.1 -s 4 -S COLOR -c blue -o black -i blue -I black
n -t 0.10000000000000001 -s 5 -S DLABEL -l "Node5" -L ""
n -t 0.1 -s 5 -S COLOR -c blue -o black -i blue -I black
n -t 0.10000000000000001 -s 6 -S DLABEL -l "Node6" -L ""
n -t 0.1 -s 6 -S COLOR -c blue -o black -i blue -I black
n -t 0.10000000000000001 -s 7 -S DLABEL -l "Node7" -L ""
n -t 0.1 -s 7 -S COLOR -c blue -o black -i blue -I black
n -t 0.10000000000000001 -s 8 -S DLABEL -l "Node8" -L ""
n -t 0.1 -s 8 -S COLOR -c blue -o black -i blue -I black
n -t 0.10000000000000001 -s 9 -S DLABEL -l "Node9" -L ""
n -t 0.1 -s 9 -S COLOR -c blue -o black -i blue -I black
n -t 0.10000000000000001 -s 10 -S DLABEL -l "Node10" -L ""
n -t 0.1 -s 10 -S COLOR -c blue -o black -i blue -I black
n -t 0.10000000000000001 -s 11 -S DLABEL -l "Node11" -L ""
n -t 0.1 -s 11 -S COLOR -c blue -o black -i blue -I black
n -t 0.10000000000000001 -s 12 -S DLABEL -l "Node12" -L ""
n -t 0.1 -s 12 -S COLOR -c blue -o black -i blue -I black
n -t 0.10000000000000001 -s 13 -S DLABEL -l "Node12" -L ""
n -t 0.1 -s 13 -S COLOR -c blue -o black -i blue -I black
n -t 0.10000000000000001 -s 14 -S DLABEL -l "Node12" -L ""
n -t 0.1 -s 14 -S COLOR -c blue -o black -i blue -I black
n -t 0.10000000000000001 -s 15 -S DLABEL -l "DSRROUTING" -L ""
n -t 0.1 -s 15 -S COLOR -c #E4E2E6 -o black -i #E4E2E6 -I black
+ -t 1.100000000 -s 0 -d -1 -p cbr -e 500 -c 2 -a 0 -i 0 -k AGT 
- -t 1.100000000 -s 0 -d -1 -p cbr -e 500 -c 2 -a 0 -i 0 -k AGT
h -t 1.100000000 -s 0 -d -1 -p cbr -e 500 -c 2 -a 0 -i 0 -k AGT
v -t 1.1 -e sim_annotation 1.1 1 HELLO PACKETS TRANSMISSION in all node
+ -t 1.107808908 -s 0 -d -1 -p DSR -e 32 -c 2 -a 0 -i 1 -k RTR 
- -t 1.107808908 -s 0 -d -1 -p DSR -e 32 -c 2 -a 0 -i 1 -k RTR
h -t 1.107808908 -s 0 -d -1 -p DSR -e 32 -c 2 -a 0 -i 1 -k RTR
+ -t 1.108443908 -s 0 -d -1 -p DSR -e 90 -c 2 -a 0 -i 1 -k MAC 
- -t 1.108443908 -s 0 -d -1 -p DSR -e 90 -c 2 -a 0 -i 1 -k MAC
h -t 1.108443908 -s 0 -d -1 -p DSR -e 90 -c 2 -a 0 -i 1 -k MAC
r -t 1.109164187 -s 9 -d -1 -p DSR -e 32 -c 2 -a 0 -i 1 -k MAC
r -t 1.109164285 -s 12 -d -1 -p DSR -e 32 -c 2 -a 0 -i 1 -k MAC
r -t 1.109164406 -s 15 -d -1 -p DSR -e 32 -c 2 -a 0 -i 1 -k MAC
r -t 1.109164423 -s 14 -d -1 -p DSR -e 32 -c 2 -a 0 -i 1 -k MAC
r -t 1.109164451 -s 13 -d -1 -p DSR -e 32 -c 2 -a 0 -i 1 -k MAC
r -t 1.109164492 -s 6 -d -1 -p DSR -e 32 -c 2 -a 0 -i 1 -k MAC
r -t 1.109164557 -s 2 -d -1 -p DSR -e 32 -c 2 -a 0 -i 1 -k MAC
r -t 1.109164696 -s 7 -d -1 -p DSR -e 32 -c 2 -a 0 -i 1 -k MAC
r -t 1.109164721 -s 4 -d -1 -p DSR -e 32 -c 2 -a 0 -i 1 -k MAC
r -t 1.109164740 -s 1 -d -1 -p DSR -e 32 -c 2 -a 0 -i 1 -k MAC
r -t 1.109164746 -s 5 -d -1 -p DSR -e 32 -c 2 -a 0 -i 1 -k MAC
r -t 1.109164848 -s 11 -d -1 -p DSR -e 32 -c 2 -a 0 -i 1 -k MAC
r -t 1.109165021 -s 8 -d -1 -p DSR -e 32 -c 2 -a 0 -i 1 -k MAC
r -t 1.109165140 -s 10 -d -1 -p DSR -e 32 -c 2 -a 0 -i 1 -k MAC
r -t 1.109165334 -s 3 -d -1 -p DSR -e 32 -c 2 -a 0 -i 1 -k MAC
+ -t 1.115544372 -s 1 -d 0 -p DSR -e 44 -c 2 -a 0 -i 2 -k RTR 
- -t 1.115544372 -s 1 -d 0 -p DSR -e 44 -c 2 -a 0 -i 2 -k RTR
h -t 1.115544372 -s 1 -d 0 -p DSR -e 44 -c 2 -a 0 -i 2 -k RTR
+ -t 1.115839372 -s 1 -d -1 -p ARP -e 86 -c 2 -a 0 -i 0 -k MAC 
- -t 1.115839372 -s 1 -d -1 -p ARP -e 86 -c 2 -a 0 -i 0 -k MAC
h -t 1.115839372 -s 1 -d -1 -p ARP -e 86 -c 2 -a 0 -i 0 -k MAC
r -t 1.116527501 -s 5 -d -1 -p ARP -e 28 -c 2 -a 0 -i 0 -k MAC
r -t 1.116527540 -s 7 -d -1 -p ARP -e 28 -c 2 -a 0 -i 0 -k MAC
r -t 1.116527712 -s 15 -d -1 -p ARP -e 28 -c 2 -a 0 -i 0 -k MAC
r -t 1.116527856 -s 4 -d -1 -p ARP -e 28 -c 2 -a 0 -i 0 -k MAC
r -t 1.116527918 -s 10 -d -1 -p ARP -e 28 -c 2 -a 0 -i 0 -k MAC
r -t 1.116527975 -s 3 -d -1 -p ARP -e 28 -c 2 -a 0 -i 0 -k MAC
r -t 1.116527990 -s 11 -d -1 -p ARP -e 28 -c 2 -a 0 -i 0 -k MAC
r -t 1.116528003 -s 12 -d -1 -p ARP -e 28 -c 2 -a 0 -i 0 -k MAC
r -t 1.116528204 -s 0 -d -1 -p ARP -e 28 -c 2 -a 0 -i 0 -k MAC
r -t 1.116528216 -s 8 -d -1 -p ARP -e 28 -c 2 -a 0 -i 0 -k MAC
r -t 1.116528349 -s 14 -d -1 -p ARP -e 28 -c 2 -a 0 -i 0 -k MAC
r -t 1.116528381 -s 13 -d -1 -p ARP -e 28 -c 2 -a 0 -i 0 -k MAC
r -t 1.116528473 -s 9 -d -1 -p ARP -e 28 -c 2 -a 0 -i 0 -k MAC
r -t 1.116528575 -s 6 -d -1 -p ARP -e 28 -c 2 -a 0 -i 0 -k MAC
r -t 1.116528839 -s 2 -d -1 -p ARP -e 28 -c 2 -a 0 -i 0 -k MAC
+ -t 1.116983204 -s 0 -d -1 -p RTS -e 44 -c 2 -a 0 -i 0 -k MAC 
- -t 1.116983204 -s 0 -d -1 -p RTS -e 44 -c 2 -a 0 -i 0 -k MAC
h -t 1.116983204 -s 0 -d -1 -p RTS -e 44 -c 2 -a 0 -i 0 -k MAC
r -t 1.117336036 -s 1 -d -1 -p RTS -e 44 -c 2 -a 0 -i 0 -k MAC
+ -t 1.117346036 -s 1 -d -1 -p CTS -e 38 -c 2 -a 0 -i 0 -k MAC 
- -t 1.117346036 -s 1 -d -1 -p CTS -e 38 -c 2 -a 0 -i 0 -k MAC
h -t 1.117346036 -s 1 -d -1 -p CTS -e 38 -c 2 -a 0 -i 0 -k MAC
r -t 1.117650868 -s 0 -d -1 -p CTS -e 38 -c 2 -a 0 -i 0 -k MAC
+ -t 1.117660868 -s 0 -d -1 -p ARP -e 86 -c 2 -a 0 -i 0 -k MAC 
- -t 1.117660868 -s 0 -d -1 -p ARP -e 86 -c 2 -a 0 -i 0 -k MAC
h -t 1.117660868 -s 0 -d -1 -p ARP -e 86 -c 2 -a 0 -i 0 -k MAC
r -t 1.117898791 -s 1 -d -1 -p ARP -e 28 -c 2 -a 0 -i 0 -k MAC
+ -t 1.117908791 -s 1 -d -1 -p ACK -e 38 -c 2 -a 0 -i 0 -k MAC 
- -t 1.117908791 -s 1 -d -1 -p ACK -e 38 -c 2 -a 0 -i 0 -k MAC
h -t 1.117908791 -s 1 -d -1 -p ACK -e 38 -c 2 -a 0 -i 0 -k MAC
r -t 1.118213623 -s 0 -d -1 -p ACK -e 38 -c 2 -a 0 -i 0 -k MAC
+ -t 1.118422791 -s 1 -d -1 -p RTS -e 44 -c 2 -a 0 -i 0 -k MAC 
- -t 1.118422791 -s 1 -d -1 -p RTS -e 44 -c 2 -a 0 -i 0 -k MAC
h -t 1.118422791 -s 1 -d -1 -p RTS -e 44 -c 2 -a 0 -i 0 -k MAC
r -t 1.118775623 -s 0 -d -1 -p RTS -e 44 -c 2 -a 0 -i 0 -k MAC
+ -t 1.118785623 -s 0 -d -1 -p CTS -e 38 -c 2 -a 0 -i 0 -k MAC 
- -t 1.118785623 -s 0 -d -1 -p CTS -e 38 -c 2 -a 0 -i 0 -k MAC
h -t 1.118785623 -s 0 -d -1 -p CTS -e 38 -c 2 -a 0 -i 0 -k MAC
r -t 1.119090455 -s 1 -d -1 -p CTS -e 38 -c 2 -a 0 -i 0 -k MAC
+ -t 1.119100455 -s 1 -d 0 -p DSR -e 102 -c 2 -a 0 -i 2 -k MAC 
- -t 1.119100455 -s 1 -d 0 -p DSR -e 102 -c 2 -a 0 -i 2 -k MAC
h -t 1.119100455 -s 1 -d 0 -p DSR -e 102 -c 2 -a 0 -i 2 -k MAC
r -t 1.119350014 -s 0 -d 0 -p DSR -e 44 -c 2 -a 0 -i 2 -k MAC
+ -t 1.119360014 -s 0 -d -1 -p ACK -e 38 -c 2 -a 0 -i 0 -k MAC 
- -t 1.119360014 -s 0 -d -1 -p ACK -e 38 -c 2 -a 0 -i 0 -k MAC
h -t 1.119360014 -s 0 -d -1 -p ACK -e 38 -c 2 -a 0 -i 0 -k MAC
+ -t 1.119375014 -s 0 -d 1 -p cbr -e 536 -c 2 -a 0 -i 0 -k RTR 
- -t 1.119375014 -s 0 -d 1 -p cbr -e 536 -c 2 -a 0 -i 0 -k RTR
h -t 1.119375014 -s 0 -d 1 -p cbr -e 536 -c 2 -a 0 -i 0 -k RTR
r -t 1.119664846 -s 1 -d -1 -p ACK -e 38 -c 2 -a 0 -i 0 -k MAC
+ -t 1.119734014 -s 0 -d -1 -p RTS -e 44 -c 2 -a 0 -i 0 -k MAC 
- -t 1.119734014 -s 0 -d -1 -p RTS -e 44 -c 2 -a 0 -i 0 -k MAC
h -t 1.119734014 -s 0 -d -1 -p RTS -e 44 -c 2 -a 0 -i 0 -k MAC
r -t 1.120086846 -s 1 -d -1 -p RTS -e 44 -c 2 -a 0 -i 0 -k MAC
+ -t 1.120096846 -s 1 -d -1 -p CTS -e 38 -c 2 -a 0 -i 0 -k MAC 
- -t 1.120096846 -s 1 -d -1 -p CTS -e 38 -c 2 -a 0 -i 0 -k MAC
h -t 1.120096846 -s 1 -d -1 -p CTS -e 38 -c 2 -a 0 -i 0 -k MAC
r -t 1.120401678 -s 0 -d -1 -p CTS -e 38 -c 2 -a 0 -i 0 -k MAC
+ -t 1.120411678 -s 0 -d 1 -p cbr -e 594 -c 2 -a 0 -i 0 -k MAC 
- -t 1.120411678 -s 0 -d 1 -p cbr -e 594 -c 2 -a 0 -i 0 -k MAC
h -t 1.120411678 -s 0 -d 1 -p cbr -e 594 -c 2 -a 0 -i 0 -k MAC
r -t 1.121019055 -s 1 -d 1 -p cbr -e 536 -c 2 -a 0 -i 0 -k MAC
+ -t 1.121029055 -s 1 -d -1 -p ACK -e 38 -c 2 -a 0 -i 0 -k MAC 
- -t 1.121029055 -s 1 -d -1 -p ACK -e 38 -c 2 -a 0 -i 0 -k MAC
h -t 1.121029055 -s 1 -d -1 -p ACK -e 38 -c 2 -a 0 -i 0 -k MAC
r -t 1.121044055 -s 1 -d 1 -p cbr -e 500 -c 2 -a 0 -i 0 -k AGT
r -t 1.121333887 -s 0 -d -1 -p ACK -e 38 -c 2 -a 0 -i 0 -k MAC
+ -t 1.400000000 -s 1 -d -1 -p cbr -e 500 -c 2 -a 0 -i 4 -k AGT 
- -t 1.400000000 -s 1 -d -1 -p cbr -e 500 -c 2 -a 0 -i 4 -k AGT
h -t 1.400000000 -s 1 -d -1 -p cbr -e 500 -c 2 -a 0 -i 4 -k AGT
+ -t 1.402421179 -s 1 -d -1 -p DSR -e 32 -c 2 -a 0 -i 5 -k RTR 
- -t 1.402421179 -s 1 -d -1 -p DSR -e 32 -c 2 -a 0 -i 5 -k RTR
h -t 1.402421179 -s 1 -d -1 -p DSR -e 32 -c 2 -a 0 -i 5 -k RTR
+ -t 1.403016179 -s 1 -d -1 -p DSR -e 90 -c 2 -a 0 -i 5 -k MAC 
- -t 1.403016179 -s 1 -d -1 -p DSR -e 90 -c 2 -a 0 -i 5 -k MAC
h -t 1.403016179 -s 1 -d -1 -p DSR -e 90 -c 2 -a 0 -i 5 -k MAC
r -t 1.403736308 -s 5 -d -1 -p DSR -e 32 -c 2 -a 0 -i 5 -k MAC
r -t 1.403736346 -s 7 -d -1 -p DSR -e 32 -c 2 -a 0 -i 5 -k MAC
r -t 1.403736518 -s 15 -d -1 -p DSR -e 32 -c 2 -a 0 -i 5 -k MAC
r -t 1.403736662 -s 4 -d -1 -p DSR -e 32 -c 2 -a 0 -i 5 -k MAC
r -t 1.403736725 -s 10 -d -1 -p DSR -e 32 -c 2 -a 0 -i 5 -k MAC
r -t 1.403736781 -s 3 -d -1 -p DSR -e 32 -c 2 -a 0 -i 5 -k MAC
r -t 1.403736797 -s 11 -d -1 -p DSR -e 32 -c 2 -a 0 -i 5 -k MAC
r -t 1.403736809 -s 12 -d -1 -p DSR -e 32 -c 2 -a 0 -i 5 -k MAC
r -t 1.403737011 -s 0 -d -1 -p DSR -e 32 -c 2 -a 0 -i 5 -k MAC
r -t 1.403737022 -s 8 -d -1 -p DSR -e 32 -c 2 -a 0 -i 5 -k MAC
r -t 1.403737156 -s 14 -d -1 -p DSR -e 32 -c 2 -a 0 -i 5 -k MAC
r -t 1.403737188 -s 13 -d -1 -p DSR -e 32 -c 2 -a 0 -i 5 -k MAC
r -t 1.403737279 -s 9 -d -1 -p DSR -e 32 -c 2 -a 0 -i 5 -k MAC
r -t 1.403737381 -s 6 -d -1 -p DSR -e 32 -c 2 -a 0 -i 5 -k MAC
r -t 1.403737646 -s 2 -d -1 -p DSR -e 32 -c 2 -a 0 -i 5 -k MAC
+ -t 1.405973537 -s 2 -d 1 -p DSR -e 44 -c 2 -a 0 -i 6 -k RTR 
- -t 1.405973537 -s 2 -d 1 -p DSR -e 44 -c 2 -a 0 -i 6 -k RTR
h -t 1.405973537 -s 2 -d 1 -p DSR -e 44 -c 2 -a 0 -i 6 -k RTR
+ -t 1.406348537 -s 2 -d -1 -p RTS -e 44 -c 2 -a 0 -i 0 -k MAC 
- -t 1.406348537 -s 2 -d -1 -p RTS -e 44 -c 2 -a 0 -i 0 -k MAC
h -t 1.406348537 -s 2 -d -1 -p RTS -e 44 -c 2 -a 0 -i 0 -k MAC
r -t 1.406702004 -s 1 -d -1 -p RTS -e 44 -c 2 -a 0 -i 0 -k MAC
+ -t 1.406712004 -s 1 -d -1 -p CTS -e 38 -c 2 -a 0 -i 0 -k MAC 
- -t 1.406712004 -s 1 -d -1 -p CTS -e 38 -c 2 -a 0 -i 0 -k MAC
h -t 1.406712004 -s 1 -d -1 -p CTS -e 38 -c 2 -a 0 -i 0 -k MAC
r -t 1.407017471 -s 2 -d -1 -p CTS -e 38 -c 2 -a 0 -i 0 -k MAC
+ -t 1.407027471 -s 2 -d 1 -p DSR -e 102 -c 2 -a 0 -i 6 -k MAC 
- -t 1.407027471 -s 2 -d 1 -p DSR -e 102 -c 2 -a 0 -i 6 -k MAC
h -t 1.407027471 -s 2 -d 1 -p DSR -e 102 -c 2 -a 0 -i 6 -k MAC
r -t 1.407277665 -s 1 -d 1 -p DSR -e 44 -c 2 -a 0 -i 6 -k MAC
+ -t 1.407287665 -s 1 -d -1 -p ACK -e 38 -c 2 -a 0 -i 0 -k MAC 
- -t 1.407287665 -s 1 -d -1 -p ACK -e 38 -c 2 -a 0 -i 0 -k MAC
h -t 1.407287665 -s 1 -d -1 -p ACK -e 38 -c 2 -a 0 -i 0 -k MAC
+ -t 1.407302665 -s 1 -d 2 -p cbr -e 536 -c 2 -a 0 -i 4 -k RTR 
- -t 1.407302665 -s 1 -d 2 -p cbr -e 536 -c 2 -a 0 -i 4 -k RTR
h -t 1.407302665 -s 1 -d 2 -p cbr -e 536 -c 2 -a 0 -i 4 -k RTR
r -t 1.407593133 -s 2 -d -1 -p ACK -e 38 -c 2 -a 0 -i 0 -k MAC
+ -t 1.407741665 -s 1 -d -1 -p ARP -e 86 -c 2 -a 0 -i 0 -k MAC 
- -t 1.407741665 -s 1 -d -1 -p ARP -e 86 -c 2 -a 0 -i 0 -k MAC
h -t 1.407741665 -s 1 -d -1 -p ARP -e 86 -c 2 -a 0 -i 0 -k MAC
r -t 1.408429795 -s 5 -d -1 -p ARP -e 28 -c 2 -a 0 -i 0 -k MAC
r -t 1.408429833 -s 7 -d -1 -p ARP -e 28 -c 2 -a 0 -i 0 -k MAC
r -t 1.408430005 -s 15 -d -1 -p ARP -e 28 -c 2 -a 0 -i 0 -k MAC
r -t 1.408430149 -s 4 -d -1 -p ARP -e 28 -c 2 -a 0 -i 0 -k MAC
r -t 1.408430211 -s 10 -d -1 -p ARP -e 28 -c 2 -a 0 -i 0 -k MAC
r -t 1.408430268 -s 3 -d -1 -p ARP -e 28 -c 2 -a 0 -i 0 -k MAC
r -t 1.408430284 -s 11 -d -1 -p ARP -e 28 -c 2 -a 0 -i 0 -k MAC
r -t 1.408430296 -s 12 -d -1 -p ARP -e 28 -c 2 -a 0 -i 0 -k MAC
r -t 1.408430497 -s 0 -d -1 -p ARP -e 28 -c 2 -a 0 -i 0 -k MAC
r -t 1.408430509 -s 8 -d -1 -p ARP -e 28 -c 2 -a 0 -i 0 -k MAC
r -t 1.408430642 -s 14 -d -1 -p ARP -e 28 -c 2 -a 0 -i 0 -k MAC
r -t 1.408430675 -s 13 -d -1 -p ARP -e 28 -c 2 -a 0 -i 0 -k MAC
r -t 1.408430766 -s 9 -d -1 -p ARP -e 28 -c 2 -a 0 -i 0 -k MAC
r -t 1.408430868 -s 6 -d -1 -p ARP -e 28 -c 2 -a 0 -i 0 -k MAC
r -t 1.408431133 -s 2 -d -1 -p ARP -e 28 -c 2 -a 0 -i 0 -k MAC
+ -t 1.408901133 -s 2 -d -1 -p RTS -e 44 -c 2 -a 0 -i 0 -k MAC 
- -t 1.408901133 -s 2 -d -1 -p RTS -e 44 -c 2 -a 0 -i 0 -k MAC
h -t 1.408901133 -s 2 -d -1 -p RTS -e 44 -c 2 -a 0 -i 0 -k MAC
r -t 1.409254600 -s 1 -d -1 -p RTS -e 44 -c 2 -a 0 -i 0 -k MAC
+ -t 1.409264600 -s 1 -d -1 -p CTS -e 38 -c 2 -a 0 -i 0 -k MAC 
- -t 1.409264600 -s 1 -d -1 -p CTS -e 38 -c 2 -a 0 -i 0 -k MAC
h -t 1.409264600 -s 1 -d -1 -p CTS -e 38 -c 2 -a 0 -i 0 -k MAC
r -t 1.409570067 -s 2 -d -1 -p CTS -e 38 -c 2 -a 0 -i 0 -k MAC
+ -t 1.409580067 -s 2 -d -1 -p ARP -e 86 -c 2 -a 0 -i 0 -k MAC 
- -t 1.409580067 -s 2 -d -1 -p ARP -e 86 -c 2 -a 0 -i 0 -k MAC
h -t 1.409580067 -s 2 -d -1 -p ARP -e 86 -c 2 -a 0 -i 0 -k MAC
r -t 1.409818625 -s 1 -d -1 -p ARP -e 28 -c 2 -a 0 -i 0 -k MAC
+ -t 1.409828625 -s 1 -d -1 -p ACK -e 38 -c 2 -a 0 -i 0 -k MAC 
- -t 1.409828625 -s 1 -d -1 -p ACK -e 38 -c 2 -a 0 -i 0 -k MAC
h -t 1.409828625 -s 1 -d -1 -p ACK -e 38 -c 2 -a 0 -i 0 -k MAC
r -t 1.410134092 -s 2 -d -1 -p ACK -e 38 -c 2 -a 0 -i 0 -k MAC
+ -t 1.410442625 -s 1 -d -1 -p RTS -e 44 -c 2 -a 0 -i 0 -k MAC 
- -t 1.410442625 -s 1 -d -1 -p RTS -e 44 -c 2 -a 0 -i 0 -k MAC
h -t 1.410442625 -s 1 -d -1 -p RTS -e 44 -c 2 -a 0 -i 0 -k MAC
r -t 1.410796092 -s 2 -d -1 -p RTS -e 44 -c 2 -a 0 -i 0 -k MAC
+ -t 1.410806092 -s 2 -d -1 -p CTS -e 38 -c 2 -a 0 -i 0 -k MAC 
- -t 1.410806092 -s 2 -d -1 -p CTS -e 38 -c 2 -a 0 -i 0 -k MAC
h -t 1.410806092 -s 2 -d -1 -p CTS -e 38 -c 2 -a 0 -i 0 -k MAC
r -t 1.411111559 -s 1 -d -1 -p CTS -e 38 -c 2 -a 0 -i 0 -k MAC
+ -t 1.411121559 -s 1 -d 2 -p cbr -e 594 -c 2 -a 0 -i 4 -k MAC 
- -t 1.411121559 -s 1 -d 2 -p cbr -e 594 -c 2 -a 0 -i 4 -k MAC
h -t 1.411121559 -s 1 -d 2 -p cbr -e 594 -c 2 -a 0 -i 4 -k MAC
r -t 1.411729572 -s 2 -d 2 -p cbr -e 536 -c 2 -a 0 -i 4 -k MAC
+ -t 1.411739572 -s 2 -d -1 -p ACK -e 38 -c 2 -a 0 -i 0 -k MAC 
- -t 1.411739572 -s 2 -d -1 -p ACK -e 38 -c 2 -a 0 -i 0 -k MAC
h -t 1.411739572 -s 2 -d -1 -p ACK -e 38 -c 2 -a 0 -i 0 -k MAC
r -t 1.411754572 -s 2 -d 2 -p cbr -e 500 -c 2 -a 0 -i 4 -k AGT
r -t 1.412045039 -s 1 -d -1 -p ACK -e 38 -c 2 -a 0 -i 0 -k MAC
+ -t 1.800000000 -s 2 -d -1 -p cbr -e 500 -c 2 -a 0 -i 7 -k AGT 
- -t 1.800000000 -s 2 -d -1 -p cbr -e 500 -c 2 -a 0 -i 7 -k AGT
h -t 1.800000000 -s 2 -d -1 -p cbr -e 500 -c 2 -a 0 -i 7 -k AGT
+ -t 1.800627961 -s 2 -d -1 -p DSR -e 32 -c 2 -a 0 -i 8 -k RTR 
- -t 1.800627961 -s 2 -d -1 -p DSR -e 32 -c 2 -a 0 -i 8 -k RTR
h -t 1.800627961 -s 2 -d -1 -p DSR -e 32 -c 2 -a 0 -i 8 -k RTR
+ -t 1.800982961 -s 2 -d -1 -p DSR -e 90 -c 2 -a 0 -i 8 -k MAC 
- -t 1.800982961 -s 2 -d -1 -p DSR -e 90 -c 2 -a 0 -i 8 -k MAC
h -t 1.800982961 -s 2 -d -1 -p DSR -e 90 -c 2 -a 0 -i 8 -k MAC
r -t 1.801703410 -s 9 -d -1 -p DSR -e 32 -c 2 -a 0 -i 8 -k MAC
r -t 1.801703476 -s 6 -d -1 -p DSR -e 32 -c 2 -a 0 -i 8 -k MAC
r -t 1.801703611 -s 0 -d -1 -p DSR -e 32 -c 2 -a 0 -i 8 -k MAC
r -t 1.801703667 -s 13 -d -1 -p DSR -e 32 -c 2 -a 0 -i 8 -k MAC
r -t 1.801703672 -s 14 -d -1 -p DSR -e 32 -c 2 -a 0 -i 8 -k MAC
r -t 1.801703853 -s 12 -d -1 -p DSR -e 32 -c 2 -a 0 -i 8 -k MAC
r -t 1.801704089 -s 15 -d -1 -p DSR -e 32 -c 2 -a 0 -i 8 -k MAC
r -t 1.801704288 -s 4 -d -1 -p DSR -e 32 -c 2 -a 0 -i 8 -k MAC
r -t 1.801704398 -s 7 -d -1 -p DSR -e 32 -c 2 -a 0 -i 8 -k MAC
r -t 1.801704414 -s 5 -d -1 -p DSR -e 32 -c 2 -a 0 -i 8 -k MAC
r -t 1.801704428 -s 1 -d -1 -p DSR -e 32 -c 2 -a 0 -i 8 -k MAC
r -t 1.801704470 -s 8 -d -1 -p DSR -e 32 -c 2 -a 0 -i 8 -k MAC
r -t 1.801704517 -s 11 -d -1 -p DSR -e 32 -c 2 -a 0 -i 8 -k MAC
r -t 1.801704755 -s 10 -d -1 -p DSR -e 32 -c 2 -a 0 -i 8 -k MAC
r -t 1.801705008 -s 3 -d -1 -p DSR -e 32 -c 2 -a 0 -i 8 -k MAC
+ -t 1.811244729 -s 3 -d 2 -p DSR -e 44 -c 2 -a 0 -i 9 -k RTR 
- -t 1.811244729 -s 3 -d 2 -p DSR -e 44 -c 2 -a 0 -i 9 -k RTR
h -t 1.811244729 -s 3 -d 2 -p DSR -e 44 -c 2 -a 0 -i 9 -k RTR
+ -t 1.811759729 -s 3 -d -1 -p ARP -e 86 -c 2 -a 0 -i 0 -k MAC 
- -t 1.811759729 -s 3 -d -1 -p ARP -e 86 -c 2 -a 0 -i 0 -k MAC
h -t 1.811759729 -s 3 -d -1 -p ARP -e 86 -c 2 -a 0 -i 0 -k MAC
r -t 1.812448148 -s 10 -d -1 -p ARP -e 28 -c 2 -a 0 -i 0 -k MAC
r -t 1.812448322 -s 5 -d -1 -p ARP -e 28 -c 2 -a 0 -i 0 -k MAC
r -t 1.812448332 -s 1 -d -1 -p ARP -e 28 -c 2 -a 0 -i 0 -k MAC
r -t 1.812448437 -s 7 -d -1 -p ARP -e 28 -c 2 -a 0 -i 0 -k MAC
r -t 1.812448548 -s 4 -d -1 -p ARP -e 28 -c 2 -a 0 -i 0 -k MAC
r -t 1.812448658 -s 15 -d -1 -p ARP -e 28 -c 2 -a 0 -i 0 -k MAC
r -t 1.812448720 -s 8 -d -1 -p ARP -e 28 -c 2 -a 0 -i 0 -k MAC
r -t 1.812448745 -s 11 -d -1 -p ARP -e 28 -c 2 -a 0 -i 0 -k MAC
r -t 1.812448897 -s 12 -d -1 -p ARP -e 28 -c 2 -a 0 -i 0 -k MAC
r -t 1.812449156 -s 0 -d -1 -p ARP -e 28 -c 2 -a 0 -i 0 -k MAC
r -t 1.812449201 -s 14 -d -1 -p ARP -e 28 -c 2 -a 0 -i 0 -k MAC
r -t 1.812449229 -s 13 -d -1 -p ARP -e 28 -c 2 -a 0 -i 0 -k MAC
r -t 1.812449429 -s 9 -d -1 -p ARP -e 28 -c 2 -a 0 -i 0 -k MAC
r -t 1.812449447 -s 6 -d -1 -p ARP -e 28 -c 2 -a 0 -i 0 -k MAC
r -t 1.812449775 -s 2 -d -1 -p ARP -e 28 -c 2 -a 0 -i 0 -k MAC
+ -t 1.812764775 -s 2 -d -1 -p RTS -e 44 -c 2 -a 0 -i 0 -k MAC 
- -t 1.812764775 -s 2 -d -1 -p RTS -e 44 -c 2 -a 0 -i 0 -k MAC
h -t 1.812764775 -s 2 -d -1 -p RTS -e 44 -c 2 -a 0 -i 0 -k MAC
r -t 1.813118822 -s 3 -d -1 -p RTS -e 44 -c 2 -a 0 -i 0 -k MAC
+ -t 1.813128822 -s 3 -d -1 -p CTS -e 38 -c 2 -a 0 -i 0 -k MAC 
- -t 1.813128822 -s 3 -d -1 -p CTS -e 38 -c 2 -a 0 -i 0 -k MAC
h -t 1.813128822 -s 3 -d -1 -p CTS -e 38 -c 2 -a 0 -i 0 -k MAC
d -t 1.813434868 -s 2 -d -1 -p CTS -e 38 -c 2 -a 0 -i 0 -k MAC
+ -t 1.813964868 -s 2 -d -1 -p RTS -e 44 -c 2 -a 0 -i 0 -k MAC 
- -t 1.813964868 -s 2 -d -1 -p RTS -e 44 -c 2 -a 0 -i 0 -k MAC
h -t 1.813964868 -s 2 -d -1 -p RTS -e 44 -c 2 -a 0 -i 0 -k MAC
r -t 1.814318915 -s 3 -d -1 -p RTS -e 44 -c 2 -a 0 -i 0 -k MAC
+ -t 1.814328915 -s 3 -d -1 -p CTS -e 38 -c 2 -a 0 -i 0 -k MAC 
- -t 1.814328915 -s 3 -d -1 -p CTS -e 38 -c 2 -a 0 -i 0 -k MAC
h -t 1.814328915 -s 3 -d -1 -p CTS -e 38 -c 2 -a 0 -i 0 -k MAC
d -t 1.814634961 -s 2 -d -1 -p CTS -e 38 -c 2 -a 0 -i 0 -k MAC
+ -t 1.817184961 -s 2 -d -1 -p RTS -e 44 -c 2 -a 0 -i 0 -k MAC 
- -t 1.817184961 -s 2 -d -1 -p RTS -e 44 -c 2 -a 0 -i 0 -k MAC
h -t 1.817184961 -s 2 -d -1 -p RTS -e 44 -c 2 -a 0 -i 0 -k MAC
r -t 1.817539007 -s 3 -d -1 -p RTS -e 44 -c 2 -a 0 -i 0 -k MAC
+ -t 1.817549007 -s 3 -d -1 -p CTS -e 38 -c 2 -a 0 -i 0 -k MAC 
- -t 1.817549007 -s 3 -d -1 -p CTS -e 38 -c 2 -a 0 -i 0 -k MAC
h -t 1.817549007 -s 3 -d -1 -p CTS -e 38 -c 2 -a 0 -i 0 -k MAC
d -t 1.817855054 -s 2 -d -1 -p CTS -e 38 -c 2 -a 0 -i 0 -k MAC
+ -t 1.821125054 -s 2 -d -1 -p RTS -e 44 -c 2 -a 0 -i 0 -k MAC 
- -t 1.821125054 -s 2 -d -1 -p RTS -e 44 -c 2 -a 0 -i 0 -k MAC
h -t 1.821125054 -s 2 -d -1 -p RTS -e 44 -c 2 -a 0 -i 0 -k MAC
r -t 1.821479100 -s 3 -d -1 -p RTS -e 44 -c 2 -a 0 -i 0 -k MAC
+ -t 1.821489100 -s 3 -d -1 -p CTS -e 38 -c 2 -a 0 -i 0 -k MAC 
- -t 1.821489100 -s 3 -d -1 -p CTS -e 38 -c 2 -a 0 -i 0 -k MAC
h -t 1.821489100 -s 3 -d -1 -p CTS -e 38 -c 2 -a 0 -i 0 -k MAC
d -t 1.821795146 -s 2 -d -1 -p CTS -e 38 -c 2 -a 0 -i 0 -k MAC
+ -t 1.830325146 -s 2 -d -1 -p RTS -e 44 -c 2 -a 0 -i 0 -k MAC 
- -t 1.830325146 -s 2 -d -1 -p RTS -e 44 -c 2 -a 0 -i 0 -k MAC
h -t 1.830325146 -s 2 -d -1 -p RTS -e 44 -c 2 -a 0 -i 0 -k MAC
r -t 1.830679193 -s 3 -d -1 -p RTS -e 44 -c 2 -a 0 -i 0 -k MAC
+ -t 1.830689193 -s 3 -d -1 -p CTS -e 38 -c 2 -a 0 -i 0 -k MAC 
- -t 1.830689193 -s 3 -d -1 -p CTS -e 38 -c 2 -a 0 -i 0 -k MAC
h -t 1.830689193 -s 3 -d -1 -p CTS -e 38 -c 2 -a 0 -i 0 -k MAC
d -t 1.830995239 -s 2 -d -1 -p CTS -e 38 -c 2 -a 0 -i 0 -k MAC
+ -t 1.833905239 -s 2 -d -1 -p RTS -e 44 -c 2 -a 0 -i 0 -k MAC 
- -t 1.833905239 -s 2 -d -1 -p RTS -e 44 -c 2 -a 0 -i 0 -k MAC
h -t 1.833905239 -s 2 -d -1 -p RTS -e 44 -c 2 -a 0 -i 0 -k MAC
r -t 1.834259285 -s 3 -d -1 -p RTS -e 44 -c 2 -a 0 -i 0 -k MAC
+ -t 1.834269285 -s 3 -d -1 -p CTS -e 38 -c 2 -a 0 -i 0 -k MAC 
- -t 1.834269285 -s 3 -d -1 -p CTS -e 38 -c 2 -a 0 -i 0 -k MAC
h -t 1.834269285 -s 3 -d -1 -p CTS -e 38 -c 2 -a 0 -i 0 -k MAC
d -t 1.834575332 -s 2 -d -1 -p CTS -e 38 -c 2 -a 0 -i 0 -k MAC
+ -t 1.837385332 -s 2 -d -1 -p RTS -e 44 -c 2 -a 0 -i 0 -k MAC 
- -t 1.837385332 -s 2 -d -1 -p RTS -e 44 -c 2 -a 0 -i 0 -k MAC
h -t 1.837385332 -s 2 -d -1 -p RTS -e 44 -c 2 -a 0 -i 0 -k MAC
r -t 1.837739378 -s 3 -d -1 -p RTS -e 44 -c 2 -a 0 -i 0 -k MAC
+ -t 1.837749378 -s 3 -d -1 -p CTS -e 38 -c 2 -a 0 -i 0 -k MAC 
- -t 1.837749378 -s 3 -d -1 -p CTS -e 38 -c 2 -a 0 -i 0 -k MAC
h -t 1.837749378 -s 3 -d -1 -p CTS -e 38 -c 2 -a 0 -i 0 -k MAC
d -t 1.838055332 -s 2 -d -1 -p RTS -e 44 -c 2 -a 0 -i 0 -k MAC
d -t 1.838055332 -s 2 -d -1 -p ARP -e 86 -c 2 -a 0 -i 0 -k MAC
d -t 1.838055424 -s 2 -d -1 -p CTS -e 38 -c 2 -a 0 -i 0 -k MAC
+ -t 1.871090079 -s 2 -d -1 -p DSR -e 32 -c 2 -a 0 -i 11 -k RTR 
- -t 1.871090079 -s 2 -d -1 -p DSR -e 32 -c 2 -a 0 -i 11 -k RTR
h -t 1.871090079 -s 2 -d -1 -p DSR -e 32 -c 2 -a 0 -i 11 -k RTR
+ -t 1.871305079 -s 2 -d -1 -p DSR -e 90 -c 2 -a 0 -i 11 -k MAC 
- -t 1.871305079 -s 2 -d -1 -p DSR -e 90 -c 2 -a 0 -i 11 -k MAC
h -t 1.871305079 -s 2 -d -1 -p DSR -e 90 -c 2 -a 0 -i 11 -k MAC
r -t 1.872025527 -s 9 -d -1 -p DSR -e 32 -c 2 -a 0 -i 11 -k MAC
r -t 1.872025593 -s 6 -d -1 -p DSR -e 32 -c 2 -a 0 -i 11 -k MAC
r -t 1.872025728 -s 0 -d -1 -p DSR -e 32 -c 2 -a 0 -i 11 -k MAC
r -t 1.872025785 -s 13 -d -1 -p DSR -e 32 -c 2 -a 0 -i 11 -k MAC
r -t 1.872025790 -s 14 -d -1 -p DSR -e 32 -c 2 -a 0 -i 11 -k MAC
r -t 1.872025970 -s 12 -d -1 -p DSR -e 32 -c 2 -a 0 -i 11 -k MAC
r -t 1.872026206 -s 15 -d -1 -p DSR -e 32 -c 2 -a 0 -i 11 -k MAC
r -t 1.872026405 -s 4 -d -1 -p DSR -e 32 -c 2 -a 0 -i 11 -k MAC
r -t 1.872026516 -s 7 -d -1 -p DSR -e 32 -c 2 -a 0 -i 11 -k MAC
r -t 1.872026532 -s 5 -d -1 -p DSR -e 32 -c 2 -a 0 -i 11 -k MAC
r -t 1.872026546 -s 1 -d -1 -p DSR -e 32 -c 2 -a 0 -i 11 -k MAC
r -t 1.872026588 -s 8 -d -1 -p DSR -e 32 -c 2 -a 0 -i 11 -k MAC
r -t 1.872026634 -s 11 -d -1 -p DSR -e 32 -c 2 -a 0 -i 11 -k MAC
r -t 1.872026872 -s 10 -d -1 -p DSR -e 32 -c 2 -a 0 -i 11 -k MAC
r -t 1.872027125 -s 3 -d -1 -p DSR -e 32 -c 2 -a 0 -i 11 -k MAC
+ -t 1.872103805 -s 15 -d -1 -p DSR -e 48 -c 2 -a 0 -i 11 -k RTR 
- -t 1.872103805 -s 15 -d -1 -p DSR -e 48 -c 2 -a 0 -i 11 -k RTR
h -t 1.872103805 -s 15 -d -1 -p DSR -e 48 -c 2 -a 0 -i 11 -k RTR
+ -t 1.872362683 -s 9 -d -1 -p DSR -e 48 -c 2 -a 0 -i 11 -k RTR 
- -t 1.872362683 -s 9 -d -1 -p DSR -e 48 -c 2 -a 0 -i 11 -k RTR
h -t 1.872362683 -s 9 -d -1 -p DSR -e 48 -c 2 -a 0 -i 11 -k RTR
+ -t 1.872517683 -s 9 -d -1 -p DSR -e 106 -c 2 -a 0 -i 11 -k MAC 
- -t 1.872517683 -s 9 -d -1 -p DSR -e 106 -c 2 -a 0 -i 11 -k MAC
h -t 1.872517683 -s 9 -d -1 -p DSR -e 106 -c 2 -a 0 -i 11 -k MAC
+ -t 1.872831441 -s 0 -d -1 -p DSR -e 48 -c 2 -a 0 -i 11 -k RTR 
- -t 1.872831441 -s 0 -d -1 -p DSR -e 48 -c 2 -a 0 -i 11 -k RTR
h -t 1.872831441 -s 0 -d -1 -p DSR -e 48 -c 2 -a 0 -i 11 -k RTR
r -t 1.873365962 -s 0 -d -1 -p DSR -e 48 -c 2 -a 0 -i 11 -k MAC
r -t 1.873366131 -s 2 -d -1 -p DSR -e 48 -c 2 -a 0 -i 11 -k MAC
r -t 1.873366302 -s 6 -d -1 -p DSR -e 48 -c 2 -a 0 -i 11 -k MAC
r -t 1.873366321 -s 12 -d -1 -p DSR -e 48 -c 2 -a 0 -i 11 -k MAC
r -t 1.873366343 -s 14 -d -1 -p DSR -e 48 -c 2 -a 0 -i 11 -k MAC
r -t 1.873366361 -s 13 -d -1 -p DSR -e 48 -c 2 -a 0 -i 11 -k MAC
r -t 1.873366456 -s 15 -d -1 -p DSR -e 48 -c 2 -a 0 -i 11 -k MAC
r -t 1.873366723 -s 7 -d -1 -p DSR -e 48 -c 2 -a 0 -i 11 -k MAC
r -t 1.873366768 -s 4 -d -1 -p DSR -e 48 -c 2 -a 0 -i 11 -k MAC
r -t 1.873366783 -s 1 -d -1 -p DSR -e 48 -c 2 -a 0 -i 11 -k MAC
r -t 1.873366794 -s 11 -d -1 -p DSR -e 48 -c 2 -a 0 -i 11 -k MAC
r -t 1.873366797 -s 5 -d -1 -p DSR -e 48 -c 2 -a 0 -i 11 -k MAC
r -t 1.873367045 -s 8 -d -1 -p DSR -e 48 -c 2 -a 0 -i 11 -k MAC
r -t 1.873367194 -s 10 -d -1 -p DSR -e 48 -c 2 -a 0 -i 11 -k MAC
r -t 1.873367383 -s 3 -d -1 -p DSR -e 48 -c 2 -a 0 -i 11 -k MAC
+ -t 1.873556456 -s 15 -d -1 -p DSR -e 106 -c 2 -a 0 -i 11 -k MAC 
- -t 1.873556456 -s 15 -d -1 -p DSR -e 106 -c 2 -a 0 -i 11 -k MAC
h -t 1.873556456 -s 15 -d -1 -p DSR -e 106 -c 2 -a 0 -i 11 -k MAC
+ -t 1.873840874 -s 7 -d -1 -p DSR -e 48 -c 2 -a 0 -i 11 -k RTR 
- -t 1.873840874 -s 7 -d -1 -p DSR -e 48 -c 2 -a 0 -i 11 -k RTR
h -t 1.873840874 -s 7 -d -1 -p DSR -e 48 -c 2 -a 0 -i 11 -k RTR
r -t 1.874404778 -s 12 -d -1 -p DSR -e 48 -c 2 -a 0 -i 11 -k MAC
r -t 1.874404796 -s 1 -d -1 -p DSR -e 48 -c 2 -a 0 -i 11 -k MAC
r -t 1.874404798 -s 5 -d -1 -p DSR -e 48 -c 2 -a 0 -i 11 -k MAC
r -t 1.874404801 -s 7 -d -1 -p DSR -e 48 -c 2 -a 0 -i 11 -k MAC
r -t 1.874404901 -s 4 -d -1 -p DSR -e 48 -c 2 -a 0 -i 11 -k MAC
r -t 1.874404955 -s 0 -d -1 -p DSR -e 48 -c 2 -a 0 -i 11 -k MAC
r -t 1.874405135 -s 14 -d -1 -p DSR -e 48 -c 2 -a 0 -i 11 -k MAC
r -t 1.874405149 -s 11 -d -1 -p DSR -e 48 -c 2 -a 0 -i 11 -k MAC
r -t 1.874405170 -s 13 -d -1 -p DSR -e 48 -c 2 -a 0 -i 11 -k MAC
r -t 1.874405220 -s 10 -d -1 -p DSR -e 48 -c 2 -a 0 -i 11 -k MAC
r -t 1.874405230 -s 9 -d -1 -p DSR -e 48 -c 2 -a 0 -i 11 -k MAC
r -t 1.874405280 -s 8 -d -1 -p DSR -e 48 -c 2 -a 0 -i 11 -k MAC
r -t 1.874405342 -s 6 -d -1 -p DSR -e 48 -c 2 -a 0 -i 11 -k MAC
r -t 1.874405385 -s 3 -d -1 -p DSR -e 48 -c 2 -a 0 -i 11 -k MAC
r -t 1.874405584 -s 2 -d -1 -p DSR -e 48 -c 2 -a 0 -i 11 -k MAC
+ -t 1.874461392 -s 3 -d 15 -p DSR -e 52 -c 2 -a 0 -i 14 -k RTR 
- -t 1.874461392 -s 3 -d 15 -p DSR -e 52 -c 2 -a 0 -i 14 -k RTR
h -t 1.874461392 -s 3 -d 15 -p DSR -e 52 -c 2 -a 0 -i 14 -k RTR
+ -t 1.874614955 -s 0 -d -1 -p DSR -e 106 -c 2 -a 0 -i 11 -k MAC 
- -t 1.874614955 -s 0 -d -1 -p DSR -e 106 -c 2 -a 0 -i 11 -k MAC
h -t 1.874614955 -s 0 -d -1 -p DSR -e 106 -c 2 -a 0 -i 11 -k MAC
+ -t 1.874784535 -s 12 -d -1 -p DSR -e 48 -c 2 -a 0 -i 11 -k RTR 
- -t 1.874784535 -s 12 -d -1 -p DSR -e 48 -c 2 -a 0 -i 11 -k RTR
h -t 1.874784535 -s 12 -d -1 -p DSR -e 48 -c 2 -a 0 -i 11 -k RTR
+ -t 1.874971025 -s 5 -d -1 -p DSR -e 48 -c 2 -a 0 -i 11 -k RTR 
- -t 1.874971025 -s 5 -d -1 -p DSR -e 48 -c 2 -a 0 -i 11 -k RTR
h -t 1.874971025 -s 5 -d -1 -p DSR -e 48 -c 2 -a 0 -i 11 -k RTR
r -t 1.875463234 -s 9 -d -1 -p DSR -e 48 -c 2 -a 0 -i 11 -k MAC
r -t 1.875463332 -s 12 -d -1 -p DSR -e 48 -c 2 -a 0 -i 11 -k MAC
r -t 1.875463453 -s 15 -d -1 -p DSR -e 48 -c 2 -a 0 -i 11 -k MAC
r -t 1.875463470 -s 14 -d -1 -p DSR -e 48 -c 2 -a 0 -i 11 -k MAC
r -t 1.875463498 -s 13 -d -1 -p DSR -e 48 -c 2 -a 0 -i 11 -k MAC
r -t 1.875463540 -s 6 -d -1 -p DSR -e 48 -c 2 -a 0 -i 11 -k MAC
r -t 1.875463604 -s 2 -d -1 -p DSR -e 48 -c 2 -a 0 -i 11 -k MAC
r -t 1.875463743 -s 7 -d -1 -p DSR -e 48 -c 2 -a 0 -i 11 -k MAC
r -t 1.875463768 -s 4 -d -1 -p DSR -e 48 -c 2 -a 0 -i 11 -k MAC
r -t 1.875463787 -s 1 -d -1 -p DSR -e 48 -c 2 -a 0 -i 11 -k MAC
r -t 1.875463793 -s 5 -d -1 -p DSR -e 48 -c 2 -a 0 -i 11 -k MAC
r -t 1.875463895 -s 11 -d -1 -p DSR -e 48 -c 2 -a 0 -i 11 -k MAC
r -t 1.875464068 -s 8 -d -1 -p DSR -e 48 -c 2 -a 0 -i 11 -k MAC
r -t 1.875464187 -s 10 -d -1 -p DSR -e 48 -c 2 -a 0 -i 11 -k MAC
r -t 1.875464382 -s 3 -d -1 -p DSR -e 48 -c 2 -a 0 -i 11 -k MAC
+ -t 1.875573743 -s 7 -d -1 -p DSR -e 106 -c 2 -a 0 -i 11 -k MAC 
- -t 1.875573743 -s 7 -d -1 -p DSR -e 106 -c 2 -a 0 -i 11 -k MAC
h -t 1.875573743 -s 7 -d -1 -p DSR -e 106 -c 2 -a 0 -i 11 -k MAC
+ -t 1.876080501 -s 14 -d -1 -p DSR -e 48 -c 2 -a 0 -i 11 -k RTR 
- -t 1.876080501 -s 14 -d -1 -p DSR -e 48 -c 2 -a 0 -i 11 -k RTR
h -t 1.876080501 -s 14 -d -1 -p DSR -e 48 -c 2 -a 0 -i 11 -k RTR
+ -t 1.876399758 -s 10 -d -1 -p DSR -e 48 -c 2 -a 0 -i 11 -k RTR 
- -t 1.876399758 -s 10 -d -1 -p DSR -e 48 -c 2 -a 0 -i 11 -k RTR
h -t 1.876399758 -s 10 -d -1 -p DSR -e 48 -c 2 -a 0 -i 11 -k RTR
r -t 1.876421911 -s 1 -d -1 -p DSR -e 48 -c 2 -a 0 -i 11 -k MAC
r -t 1.876422035 -s 5 -d -1 -p DSR -e 48 -c 2 -a 0 -i 11 -k MAC
r -t 1.876422089 -s 15 -d -1 -p DSR -e 48 -c 2 -a 0 -i 11 -k MAC
r -t 1.876422197 -s 11 -d -1 -p DSR -e 48 -c 2 -a 0 -i 11 -k MAC
r -t 1.876422366 -s 4 -d -1 -p DSR -e 48 -c 2 -a 0 -i 11 -k MAC
r -t 1.876422410 -s 12 -d -1 -p DSR -e 48 -c 2 -a 0 -i 11 -k MAC
r -t 1.876422451 -s 3 -d -1 -p DSR -e 48 -c 2 -a 0 -i 11 -k MAC
r -t 1.876422453 -s 10 -d -1 -p DSR -e 48 -c 2 -a 0 -i 11 -k MAC
r -t 1.876422532 -s 0 -d -1 -p DSR -e 48 -c 2 -a 0 -i 11 -k MAC
r -t 1.876422739 -s 8 -d -1 -p DSR -e 48 -c 2 -a 0 -i 11 -k MAC
r -t 1.876422766 -s 14 -d -1 -p DSR -e 48 -c 2 -a 0 -i 11 -k MAC
r -t 1.876422783 -s 9 -d -1 -p DSR -e 48 -c 2 -a 0 -i 11 -k MAC
r -t 1.876422800 -s 13 -d -1 -p DSR -e 48 -c 2 -a 0 -i 11 -k MAC
r -t 1.876422974 -s 6 -d -1 -p DSR -e 48 -c 2 -a 0 -i 11 -k MAC
r -t 1.876423180 -s 2 -d -1 -p DSR -e 48 -c 2 -a 0 -i 11 -k MAC